576
Lattice="12.904866 0.0 0.0 0.0 12.904866 0.0 0.0 0.0 238.714598" Properties=species:S:1:pos:R:3:initial_charges:R:1:masses:R:1:momenta:R:3:id:I:1:type:I:1:mol-id:I:1:mmcharges:R:1:bonds:S:1:angles:S:1:forces:R:3 comment="LAMMPS data file via write_data, version 29 Aug 2024, timestep = 2000000, units = real" fermi-level=0.0 energy=-90152.64169003537 free_energy=-90152.64169003537 stress="0.004585800036866879 -0.0005238358722785773 -0.0002772099205729237 -0.0005238358722785773 0.004400549825588006 -4.2258218207650246e-05 -0.0002772099205729237 -4.2258218207650246e-05 0.005118991334443741" dipole="10.884321150549626 -3.115693826323672 0.7638622371460912" pbc="T T T"
O       58.30491640     -26.02612272      29.81976419      -0.84760000      15.99940000      -0.11927711      -0.19623553      -0.70879962        1        1        1      -0.84760000 1(1),2(1) 1-2(1)      -0.67422325      -1.36948946       1.29441415
H       58.81533372     -26.11137365      30.70329570       0.42380000       1.00800000      -0.17920826      -0.03218112       0.25488002        2        2        1       0.42380000 _ _      -1.07065161       0.24633550      -0.92885372
H       57.50051230     -26.61504316      29.92851124       0.42380000       1.00800000       0.11915069      -0.01419054      -0.35694463        3        2        1       0.42380000 _ _       1.44863211       0.64597861      -0.22627063
O      -42.99680250      45.42571699      11.74077933      -0.84760000      15.99940000       0.55212644       0.96909057       0.35974327        4        1        2      -0.84760000 4(1),5(1) 4-5(1)      -1.33762672       0.29576651       0.80077764
H      -43.66945760      45.46341690      10.96999170       0.42380000       1.00800000      -0.17511441      -0.15841885      -0.03611186        5        2        2       0.42380000 _ _       0.81307171      -0.32325037       1.01943947
H      -43.49991993      45.51571625      12.61558247       0.42380000       1.00800000       0.20369036      -0.01932425      -0.06794158        6        2        2       0.42380000 _ _       0.64968312       0.00091129      -1.77325545
O      -32.37593793     -61.49257942      23.06184413      -0.84760000      15.99940000      -0.03189219      -0.78718373      -0.55292937        7        1        3      -0.84760000 7(1),8(1) 7-8(1)      -0.07228084       0.39902459       0.03926817
H      -32.03058715     -60.80840547      23.74432681       0.42380000       1.00800000      -0.27549809       0.09180628      -0.03948786        8        2        3       0.42380000 _ _       0.18860776      -0.56091629      -0.97372843
H      -31.60265503     -61.91156067      22.57409437       0.42380000       1.00800000      -0.10567691       0.17929631      -0.35299331        9        2        3       0.42380000 _ _      -0.56151940       0.10343093       1.00721595
O       14.40957968     -19.78112418      16.93883807      -0.84760000      15.99940000       0.58490259       0.31396111       0.44714371       10        1        4      -0.84760000 10(1),11(1) 10-11(1)      -0.18759233       0.19529372      -0.81187710
H       13.60001998     -19.82871848      16.34527507       0.42380000       1.00800000      -0.09530805      -0.05805201      -0.08137316       11        2        4       0.42380000 _ _       1.21338347       0.21344975       0.45431376
H       15.07112099     -19.13806743      16.51323787       0.42380000       1.00800000       0.09706118      -0.04583389       0.02660120       12        2        4       0.42380000 _ _      -0.60370564      -0.72655218      -0.00628002
O       61.76335954     -29.68609256      10.61402820      -0.84760000      15.99940000      -0.77329001       0.24799416       0.24103482       13        1        5      -0.84760000 13(1),14(1) 13-14(1)      -0.21629402      -1.40139984       0.18354104
H       62.01872233     -30.02558951       9.71303659       0.42380000       1.00800000      -0.27450173       0.33146216       0.01165160       14        2        5       0.42380000 _ _      -0.50246250       0.26327760       1.03631206
H       61.45218775     -30.50398134      11.13439706       0.42380000       1.00800000       0.13469621       0.21339478      -0.07699842       15        2        5       0.42380000 _ _       0.45798927       1.10739019      -1.09544955
O      -16.30189458     -47.88575500      30.97682453      -0.84760000      15.99940000       0.29510718       0.71693744       0.37391333       16        1        6      -0.84760000 16(1),17(1) 16-17(1)       0.80022183       1.04649757      -0.92101778
H      -16.20173030     -47.15431690      30.27890233       0.42380000       1.00800000      -0.02107736      -0.15048379      -0.06296020       17        2        6       0.42380000 _ _      -0.00403515      -1.50425028       1.26253603
H      -15.50323696     -48.54565955      30.83976549       0.42380000       1.00800000       0.03924412      -0.07578683       0.02350765       18        2        6       0.42380000 _ _      -1.03222594       0.81199677      -0.21458291
O        2.09396439     -31.35720558       8.49148095      -0.84760000      15.99940000      -0.06265531       1.02426705      -1.05316392       19        1        7      -0.84760000 19(1),20(1) 19-20(1)       0.23192216       0.22146848      -0.33102657
H        2.41454729     -31.41554913       7.51979358       0.42380000       1.00800000       0.18761863       0.06716504      -0.10389464       20        2        7       0.42380000 _ _      -0.55320178       0.62650457       0.74065994
H        2.15246368     -30.42000389       8.90712117       0.42380000       1.00800000      -0.09229020      -0.25314281       0.04463700       21        2        7       0.42380000 _ _       0.43874569      -0.71945504      -0.80815114
O       10.90703847     -12.47562357      11.86535361      -0.84760000      15.99940000       0.26515395      -0.73895665       0.19616078       22        1        8      -0.84760000 22(1),23(1) 22-23(1)      -0.29046697      -0.81092132      -0.07908859
H       11.60255501     -12.71989741      11.14441098       0.42380000       1.00800000       0.25358764      -0.12748128      -0.06902100       23        2        8       0.42380000 _ _      -1.49648420       0.14597064       1.04202175
H       10.21542916     -13.22698089      12.02939039       0.42380000       1.00800000      -0.13950834       0.08478233      -0.10114180       24        2        8       0.42380000 _ _       1.70721197       0.80520487      -0.55363603
O      -12.73331196     -27.01456610      32.89185770      -0.84760000      15.99940000       0.55313921      -0.31943345       1.44379021       25        1        9      -0.84760000 25(1),26(1) 25-26(1)      -0.79930684      -0.72122267      -0.56678292
H      -12.09319548     -26.72433477      32.17345125       0.42380000       1.00800000       0.17382526      -0.05027036      -0.07448289       26        2        9       0.42380000 _ _      -0.49630278      -0.40685211       0.42041556
H      -13.68730643     -27.17219145      32.53045066       0.42380000       1.00800000       0.10238731      -0.05498290      -0.05774382       27        2        9       0.42380000 _ _       1.45622777       0.76425719      -0.17021151
O       53.81285176     -52.37686012      30.97269734      -0.84760000      15.99940000       1.26886564       0.33526005      -0.62720938       28        1       10      -0.84760000 28(1),29(1) 28-29(1)       0.24711931      -0.68573165      -0.40938409
H       54.61394752     -51.72738544      30.97391781       0.42380000       1.00800000      -0.05070218       0.35301383       0.22730162       29        2       10       0.42380000 _ _      -0.82958003      -0.90892893      -0.13483811
H       54.03997533     -53.27057074      30.52281510       0.42380000       1.00800000      -0.07986310      -0.04129628      -0.05204253       30        2       10       0.42380000 _ _      -0.16119921       1.87022560       0.42152261
O       -2.06950743     -24.79573044       7.71365930      -0.84760000      15.99940000      -0.63500729       0.03928610      -0.67485826       31        1       11      -0.84760000 31(1),32(1) 31-32(1)       0.33295073      -1.85309966      -1.01487132
H       -2.03327887     -25.48915058       6.95721026       0.42380000       1.00800000       0.37663188       0.09818524       0.20506985       32        2       11       0.42380000 _ _      -0.10504149       1.42933038       1.70701034
H       -1.75201776     -25.28083102       8.53869022       0.42380000       1.00800000      -0.04212234      -0.27722058       0.07568237       33        2       11       0.42380000 _ _      -0.28701836       0.06999280      -0.75561592
O      -35.37362255      -6.81380291      28.85745079      -0.84760000      15.99940000      -0.27619072       0.26013200       0.70897442       34        1       12      -0.84760000 34(1),35(1) 34-35(1)      -1.67584251       0.14439083       1.26387566
H      -36.02215160      -7.18873656      28.15097852       0.42380000       1.00800000      -0.23933230      -0.07233166       0.13480760       35        2       12       0.42380000 _ _       0.91332411       0.06206528       1.15296618
H      -35.85245299      -6.75517762      29.76329493       0.42380000       1.00800000      -0.18634575       0.00078831       0.15465723       36        2       12       0.42380000 _ _       1.18616617      -0.28046583      -2.22004681
O      162.54317488     -77.16167449    -206.45632014      -0.84760000      15.99940000      -1.74094686       0.91779307      -0.60780640       37        1       13      -0.84760000 37(1),38(1) 37-38(1)      -0.00759240      -0.73815809       0.53567762
H      163.25432669     -76.52724111    -206.09656069       0.42380000       1.00800000      -0.09827043       0.00153421       0.07945705       38        2       13       0.42380000 _ _      -0.28392543      -1.24233049       0.47782083
H      162.30705334     -77.97311009    -205.89856405       0.42380000       1.00800000       0.03840316      -0.26394620      -0.13657318       39        2       13       0.42380000 _ _       0.75591582       1.56551059      -0.30036659
O       21.70314435     -15.93293201      26.90455978      -0.84760000      15.99940000       0.44705017       0.08047962       0.37294561       40        1       14      -0.84760000 40(1),41(1) 40-41(1)      -0.48404394      -1.85112692      -0.98547771
H       21.60324631     -16.36488309      25.96971127       0.42380000       1.00800000      -0.14454455       0.23168939       0.19575556       41        2       14       0.42380000 _ _       0.56894083       1.02182374       1.86037874
H       21.57432058     -16.68655946      27.58503897       0.42380000       1.00800000      -0.04885248      -0.29867536      -0.09810403       42        2       14       0.42380000 _ _      -0.15101572       0.95521763      -1.16617039
O       68.47053127      66.64011130      24.05757577      -0.84760000      15.99940000      -0.23602953       0.27432738      -0.26734187       43        1       15      -0.84760000 43(1),44(1) 43-44(1)      -0.08627012      -0.27443851       0.48921527
H       68.35137413      66.74930712      25.07303532       0.42380000       1.00800000      -0.16194472      -0.06742745       0.07855419       44        2       15       0.42380000 _ _       0.86357110      -0.14222308      -1.23525712
H       69.38792281      66.86463210      23.67542126       0.42380000       1.00800000       0.03633453      -0.12162680       0.10891286       45        2       15       0.42380000 _ _      -0.50035283       0.25041354       1.03140812
O       91.10385460      80.09292279       9.26895682      -0.84760000      15.99940000      -0.12013472       0.39595238      -0.18112281       46        1       16      -0.84760000 46(1),47(1) 46-47(1)       0.05747138       0.40640120      -0.45014503
H       92.01461555      80.04117348       9.75653327       0.42380000       1.00800000       0.00891390       0.07114516       0.01150214       47        2       16       0.42380000 _ _      -1.03460936       0.95262359      -0.86553015
H       90.93290351      80.87268247       8.63087752       0.42380000       1.00800000       0.03832000       0.02399800      -0.03024819       48        2       16       0.42380000 _ _       0.78537356      -1.33311298       1.55054102
O        4.94437642     -73.05897454      17.05074031      -0.84760000      15.99940000       0.69282581      -0.72416824      -0.47646913       49        1       17      -0.84760000 49(1),50(1) 49-50(1)      -0.54194164       0.29733577      -0.66245709
H        4.52537134     -72.99721450      17.96526236       0.42380000       1.00800000      -0.21890976       0.07461131      -0.08537181       50        2       17       0.42380000 _ _      -0.20881250      -0.40261166      -1.45452329
H        4.29177207     -73.27139269      16.27949699       0.42380000       1.00800000       0.18005218       0.02164525       0.20959447       51        2       17       0.42380000 _ _       0.36492336      -0.00953161       2.46717513
O       29.87108125     -51.03993326       7.85622043      -0.84760000      15.99940000       0.45763771      -0.44456094       1.81330329       52        1       18      -0.84760000 52(1),53(1) 52-53(1)       0.36780322       1.27527893      -0.05653895
H       30.47767099     -50.30557427       8.21274579       0.42380000       1.00800000       0.12703364       0.35331692       0.02302042       53        2       18       0.42380000 _ _      -1.54491430      -0.52501705      -0.46357414
H       29.23653253     -50.59134729       7.18861039       0.42380000       1.00800000       0.10125627       0.04569982       0.24847704       54        2       18       0.42380000 _ _       0.78820034      -0.56366384       1.02406427
O       -6.78580919     -29.55506568      22.07988834      -0.84760000      15.99940000       0.97243498       0.93385154       0.80426887       55        1       19      -0.84760000 55(1),56(1) 55-56(1)      -0.17553573       0.34522452      -1.12335597
H       -6.44783169     -30.23135685      22.73335180       0.42380000       1.00800000       0.16927720      -0.18223749      -0.03534937       56        2       19       0.42380000 _ _      -0.53909801       1.44495032      -0.12681581
H       -6.54957104     -28.56573872      22.28096481       0.42380000       1.00800000       0.05831555       0.14390275       0.15847169       57        2       19       0.42380000 _ _       0.30625497      -2.22576505       0.40925507
O        2.76609700     -64.16048753      35.06027191      -0.84760000      15.99940000      -1.23959320      -0.68426820      -0.49058806       58        1       20      -0.84760000 58(1),59(1) 58-59(1)       1.18551526       0.35190733      -0.67594372
H        3.33877981     -63.65422441      34.36814789       0.42380000       1.00800000      -0.05299960       0.00625835      -0.04616023       59        2       20       0.42380000 _ _      -0.95278142      -1.82206668       1.79208413
H        3.20915633     -64.98363105      35.45991928       0.42380000       1.00800000       0.05143709       0.07869272      -0.13138280       60        2       20       0.42380000 _ _      -0.05983623       1.42791281      -0.91281799
O       32.59032393     -29.13188813      31.66042656      -0.84760000      15.99940000      -0.38885787       0.12962446      -0.36608963       61        1       21      -0.84760000 61(1),62(1) 61-62(1)      -0.19907320      -0.02722787       0.49304358
H       33.46040301     -29.53403251      31.99972261       0.42380000       1.00800000       0.21819623      -0.15348127       0.11206864       62        2       21       0.42380000 _ _      -1.67290381       0.72733728       0.05264290
H       31.96528496     -28.83373953      32.40085289       0.42380000       1.00800000       0.06738739       0.05934758      -0.06160169       63        2       21       0.42380000 _ _       1.46858409      -0.50568395      -0.47480040
O      -38.73163759      60.72374224      34.60746882      -0.84760000      15.99940000       0.32123698      -1.06075146       1.42351696       64        1       22      -0.84760000 64(1),65(1) 64-65(1)       0.47865591       1.09814799       0.22861692
H      -38.55661415      61.72109805      34.48514505       0.42380000       1.00800000       0.15789791       0.10160194       0.21171955       65        2       22       0.42380000 _ _       0.12862531      -1.70081690       0.45481717
H      -38.20133339      60.29729953      35.37304375       0.42380000       1.00800000       0.05532852      -0.17337128       0.09886957       66        2       22       0.42380000 _ _      -0.37072794       0.74257153      -1.09969575
O      -31.39172730      39.03368585      14.40258058      -0.84760000      15.99940000      -0.44968997      -0.25627301      -0.27521687       67        1       23      -0.84760000 67(1),68(1) 67-68(1)       0.94588021       0.30060014      -0.39201503
H      -30.92060827      39.63722580      13.73358442       0.42380000       1.00800000      -0.03472625      -0.00433443      -0.01836171       68        2       23       0.42380000 _ _       0.05614555      -1.31274418       1.37126429
H      -30.78180578      38.33395092      14.76705988       0.42380000       1.00800000       0.19829997      -0.01045580      -0.12592540       69        2       23       0.42380000 _ _      -0.47046646       1.15828672      -0.87983987
O      -39.35203446      49.85356018      27.79210318      -0.84760000      15.99940000      -0.74688945      -0.37743038       0.46639373       70        1       24      -0.84760000 70(1),71(1) 70-71(1)       0.22765640      -1.47586246       0.86195007
H      -40.22964604      49.53346657      28.20771289       0.42380000       1.00800000       0.36996625      -0.01101437       0.49863404       71        2       24       0.42380000 _ _       1.05881458       0.39409047       0.16618040
H      -38.67631643      49.09597328      27.75132928       0.42380000       1.00800000      -0.07484603      -0.02351270      -0.04859274       72        2       24       0.42380000 _ _      -0.97120628       0.63942178      -0.15872774
O       30.23087068      49.36139875       8.14254844      -0.84760000      15.99940000       0.02542466       0.11431763      -1.32212323       73        1       25      -0.84760000 73(1),74(1) 73-74(1)       0.56466312       1.25469669      -0.73168123
H       30.98884931      48.95957219       7.58876965       0.42380000       1.00800000      -0.17866364       0.00507494      -0.08235624       74        2       25       0.42380000 _ _      -0.84744153       1.07359919       0.57452456
H       30.17476310      50.39230293       8.03490462       0.42380000       1.00800000       0.01983929      -0.21846319       0.20285438       75        2       25       0.42380000 _ _       0.40909496      -1.68973749      -0.06260548
O        7.31848486      46.80195469      19.75418040      -0.84760000      15.99940000       0.19740127      -0.36768398       1.17776721       76        1       26      -0.84760000 76(1),77(1) 76-77(1)      -0.28444428       0.00701050       0.48475356
H        6.85467654      47.20147050      20.56227344       0.42380000       1.00800000       0.24485011      -0.13858627       0.01060974       77        2       26       0.42380000 _ _      -0.12883920      -0.14974329      -0.92262029
H        6.73459461      46.54996707      18.96495138       0.42380000       1.00800000       0.18258084      -0.03908004      -0.10446256       78        2       26       0.42380000 _ _       0.46981459       0.57549122       1.00670868
O       -3.07124892    -125.30698011      27.39102050      -0.84760000      15.99940000       0.28466166       0.42303352       0.55900784       79        1       27      -0.84760000 79(1),80(1) 79-80(1)       0.75678436       0.09609414      -0.75860165
H       -2.51753041    -125.33693808      26.52425731       0.42380000       1.00800000       0.23655539      -0.11964279       0.19016239       80        2       27       0.42380000 _ _      -0.88951698       0.15468493       1.71514457
H       -2.87498107    -124.47917177      27.97066561       0.42380000       1.00800000       0.09762991       0.01840949       0.10933646       81        2       27       0.42380000 _ _       0.51319873      -0.68886267      -1.26080838
O      -22.92465346     -54.25262382      29.12552502      -0.84760000      15.99940000       0.34125773      -0.08638985      -0.34707972       82        1       28      -0.84760000 82(1),83(1) 82-83(1)      -1.14146152      -0.22615372      -0.50322569
H      -22.06223432     -54.71331105      29.36646595       0.42380000       1.00800000      -0.05295675      -0.05515062      -0.09253816       83        2       28       0.42380000 _ _      -0.28846648      -0.58262577      -0.69154899
H      -23.38865694     -54.70478656      28.33657953       0.42380000       1.00800000       0.23163789       0.19053802      -0.34904629       84        2       28       0.42380000 _ _       0.78806955       0.18806451       1.06897197
O       -3.15000699      10.45718855      21.88908170      -0.84760000      15.99940000       0.09539110      -1.28598691       0.23227152       85        1       29      -0.84760000 85(1),86(1) 85-86(1)      -1.52875078       0.58177900      -1.05258053
H       -4.07385243      10.88702661      21.74144218       0.42380000       1.00800000       0.17535051       0.23340142      -0.04194718       86        2       29       0.42380000 _ _       2.03747097      -0.85164416       0.02157620
H       -2.78062619      10.13243032      20.98800553       0.42380000       1.00800000       0.26008143      -0.22089116      -0.25288624       87        2       29       0.42380000 _ _      -0.41279705       0.44692241       0.91583679
O       28.15759484      54.91516901      22.29705355      -0.84760000      15.99940000      -0.53303752       0.41988653      -0.36964115       88        1       30      -0.84760000 88(1),89(1) 88-89(1)      -0.06612249       1.61448341       0.25181074
H       28.39896670      55.90919473      22.31828236       0.42380000       1.00800000       0.10808961       0.09711077      -0.14311898       89        2       30       0.42380000 _ _      -0.41910318      -2.05181939       0.30809008
H       28.60815162      54.38658350      23.03429012       0.42380000       1.00800000       0.08543883      -0.01957419       0.07503913       90        2       30       0.42380000 _ _       0.24625108       0.98103797      -0.39897833
O        5.37106212     -56.21895516      26.51097098      -0.84760000      15.99940000       0.80913082       0.01344820       0.75717354       91        1       31      -0.84760000 91(1),92(1) 91-92(1)       0.08250831       0.24741524       0.84476420
H        5.51309848     -56.73594080      27.38940453       0.42380000       1.00800000       0.01737058      -0.14003450      -0.24412460       92        2       31       0.42380000 _ _       0.25312725       1.01245825      -1.24896795
H        5.26351969     -55.21054679      26.57162659       0.42380000       1.00800000      -0.01509914       0.04947758      -0.05911307       93        2       31       0.42380000 _ _       0.07892879      -1.55187198       0.01583243
O       10.99079461     -16.11890737      19.42301696      -0.84760000      15.99940000      -0.34107597      -0.12130951       0.39959584       94        1       32      -0.84760000 94(1),95(1) 94-95(1)       0.95480657       0.28835491      -0.23158959
H       12.01298117     -16.09205932      19.29659678       0.42380000       1.00800000      -0.15935387       0.01978224      -0.10026921       95        2       32       0.42380000 _ _      -1.73404916      -0.53250333       0.45571546
H       10.54128891     -16.86488187      18.92773115       0.42380000       1.00800000      -0.20825573       0.02339607       0.02577970       96        2       32       0.42380000 _ _       0.81281630       0.34017258      -0.09076302
O      -35.23655050     -22.37431418       5.37385320      -0.84760000      15.99940000       0.99544150       0.03493973       0.15803219       97        1       33      -0.84760000 97(1),98(1) 97-98(1)       0.10673468       1.53766854      -0.21986170
H      -34.56747340     -21.72892627       4.94744453       0.42380000       1.00800000       0.11761605       0.11594944      -0.23880653       98        2       33       0.42380000 _ _      -1.73472771      -1.03172978       0.61578524
H      -36.10629494     -21.86824604       5.62720801       0.42380000       1.00800000      -0.12046338      -0.19859994      -0.13676822       99        2       33       0.42380000 _ _       1.79500465      -0.44022792      -0.48357516
O      -11.33530150     -73.27430047      34.32140148      -0.84760000      15.99940000      -1.38360063      -0.49868031      -0.24861500      100        1       34      -0.84760000 100(1),101(1) 100-101(1)      -1.11713999      -0.99482429      -1.36785555
H      -11.68255114     -74.21117668      34.46125808       0.42380000       1.00800000      -0.12998245       0.06189987      -0.00080151      101        2       34       0.42380000 _ _       0.41942628       1.33948288      -0.27705794
H      -11.59108954     -73.08747942      33.34902462       0.42380000       1.00800000      -0.09541642      -0.11674751       0.02943620      102        2       34       0.42380000 _ _       0.58874424      -0.51227790       1.47550546
O       63.48920215     -50.45111968      38.60572347      -0.84760000      15.99940000       0.29619835      -0.09318006       0.56116949      103        1       35      -0.84760000 103(1),104(1) 103-104(1)      -0.10215048      -0.37404146       0.57324661
H       64.26879390     -49.84614257      38.31599466       0.42380000       1.00800000       0.31295139       0.11908923      -0.01950939      104        2       35       0.42380000 _ _      -1.16876350      -0.16895228       1.16029855
H       63.16259938     -50.29472759      39.54092829       0.42380000       1.00800000       0.06337786       0.22673613      -0.16426979      105        2       35       0.42380000 _ _       0.95793856       0.33694190      -1.57733104
O       -5.39784571      70.95760547       9.14777077      -0.84760000      15.99940000      -0.54576102       0.63755143      -0.42126810      106        1       36      -0.84760000 106(1),107(1) 106-107(1)      -1.26743452      -0.41673009      -0.48437289
H       -6.39293166      70.91835696       8.89343177       0.42380000       1.00800000       0.00375131      -0.09542995       0.14106083      107        2       36       0.42380000 _ _       1.23057146      -0.27007758       0.54497361
H       -5.00475388      70.04720851       8.96974363       0.42380000       1.00800000      -0.31730666      -0.08614945      -0.06492654      108        2       36       0.42380000 _ _      -0.34075155       0.23021532       0.44949599
O       59.45956441    -108.86681832      39.56385545      -0.84760000      15.99940000      -0.28497816      -0.65483488      -0.15283514      109        1       37      -0.84760000 109(1),110(1) 109-110(1)      -0.02866025       0.69151835       0.20393375
H       59.61959955    -108.92088314      38.56227574       0.42380000       1.00800000       0.03652000      -0.15400388      -0.06726438      110        2       37       0.42380000 _ _       0.68822442       0.56656833       0.95367193
H       59.83948533    -107.99545345      39.92660746       0.42380000       1.00800000      -0.06428261       0.04311451       0.00361076      111        2       37       0.42380000 _ _      -0.40996682      -1.74733937      -1.24753904
O      -36.96590774      66.70260759      19.93013217      -0.84760000      15.99940000       0.18498046      -0.11138755      -0.51077550      112        1       38      -0.84760000 112(1),113(1) 112-113(1)       0.04622481       1.27094184       0.68949022
H      -36.30522648      67.22781163      19.36011961       0.42380000       1.00800000       0.03533116      -0.02033071       0.09744838      113        2       38       0.42380000 _ _      -1.23159375      -0.49181596       1.05836137
H      -37.16205743      67.30097052      20.76605236       0.42380000       1.00800000      -0.08420775      -0.30902918      -0.33969793      114        2       38       0.42380000 _ _       0.94781928      -1.25102904      -1.83544708
O       11.80762865      -2.32791251      23.68429984      -0.84760000      15.99940000       1.23960634      -0.51798842      -0.22940735      115        1       39      -0.84760000 115(1),116(1) 115-116(1)       0.13531456      -0.66411276      -0.94919343
H       12.28046515      -3.22164042      23.62698132       0.42380000       1.00800000      -0.09806405      -0.01063048      -0.02892375      116        2       39       0.42380000 _ _      -1.47566199       1.39370487      -0.17391048
H       10.98303786      -2.17426375      23.07505346       0.42380000       1.00800000      -0.16844929      -0.07543551       0.10154764      117        2       39       0.42380000 _ _       1.45209793      -1.04478158       0.48596523
O      -14.94246936      17.61735006      19.34091243      -0.84760000      15.99940000       1.02962189       0.82004029       0.16910986      118        1       40      -0.84760000 118(1),119(1) 118-119(1)      -0.49630131       1.66613173       0.87100948
H      -14.24893200      18.33692757      19.49004820       0.42380000       1.00800000       0.12994718      -0.14897136       0.14396188      119        2       40       0.42380000 _ _      -1.12329154      -0.91296743      -0.40882166
H      -15.79168737      18.00304214      19.77406458       0.42380000       1.00800000       0.18864027      -0.25845431      -0.22313202      120        2       40       0.42380000 _ _       2.14943161      -0.56160908      -0.87952276