6
Lattice="-3.03487445986852 3.03487445986852 2.43262032492013 3.03487445986852 -3.03487445986852 2.43262032492013 3.03487445986852 3.03487445986852 -2.43262032492013" Properties=species:S:1:pos:R:3 oqmd_id=NOTINOQMD_00001 name=NOTINOQMD_00001 oqmd_composition=Al2Cu oqmd_formation_energy oqmd_volume_per_atom formula=Al2Cu potential_energy=0.0 formation_energy=0.0 volume_peratom=14.937039642996957 lattice_a=4.933413384213713 lattice_b=4.933413384213713 lattice_c=4.933413384213713 angle_alpha=104.07184865310414 angle_beta=104.07184865310414 angle_gamma=120.91214313379463 oqmd_volume_peratom energy=0.0 pbc="T T T"
Al       0.95692861       3.99180307       0.00000000
Al      -0.95692861      -3.99180307       0.00000000
Al      -3.99180307       0.95692861       0.00000000
Al       3.99180307      -0.95692861       0.00000000
Cu       0.00000000       0.00000000       1.21631016
Cu       0.00000000       0.00000000      -1.21631016
