8
Lattice="-3.998371 0.0 0.0 -1.999186 4.632574 0.0 0.0 0.0 -7.129003" Properties=species:S:1:pos:R:3 oqmd_id=10434 name=OQMD_10434 oqmd_composition=MgAl2Cu oqmd_formation_energy=-0.182843854792 oqmd_volume_per_atom=16.5061 formula=Al2CuMg potential_energy=0.0 formation_energy=0.0 volume_peratom=16.506092127149216 lattice_a=3.998371 lattice_b=5.045541252241627 lattice_c=7.129003 angle_alpha=90.0 angle_beta=90.0 angle_gamma=66.65740085176857 oqmd_volume_peratom=16.5061 energy=0.0 pbc="T T T"
Al      -1.99919000       1.33512000      -3.17442000
Al      -3.99837000       3.29745000      -3.95459000
Al      -1.99919000       1.33512000      -0.39009000
Al      -3.99837000       3.29745000      -6.73892000
Cu      -1.99919000       2.59601000      -5.34675000
Cu      -3.99837000       2.03656000      -1.78225000
Mg      -1.99919000       4.03139000      -1.78225000
Mg      -3.99837000       0.60118000      -5.34675000
