339
Lattice="14.653976132640961 0.0 0.0 0.0 14.653976132640961 0.0 0.0 0.0 14.653976132640961" Properties=species:S:1:pos:R:3:momenta:R:3:molID:I:1 total_charge=0 exec_time=1758997627.7455804 step=159600 time_fs=79799.999999925 time_ps=79.799999999925 charge=0 spin=5 Nmols=115 Comp=---UNK_Cl(2):UNK_Fe(1):UNK_H2O(112) pbc="T T T"
Fe       7.31388897      12.83019064      10.66706879      -0.46735654      -1.21436723      -1.55823168        0
Cl       7.14485757      10.94077497       6.25292789       0.24997392       0.57498803       1.16801883        1
Cl       1.05171484       2.81912733       7.50684378      -1.79568861       1.29361266       1.52889486        2
O        4.02738321      10.47528816       8.31140856       1.21687918      -0.46681284      -0.08727318        3
H        4.47846131      11.28098056       7.99334890      -0.01329951      -0.33815540      -0.16911986        3
H        4.46701224       9.70065142       7.89887267      -0.04855593       0.03804000       0.01049591        3
O        5.48356052       8.98506079      13.17975531       0.97243121       0.10612434      -0.11093342        4
H        5.11006044       8.07192557      13.19407602       0.03600828      -0.21965617      -0.15225536        4
H        5.12719515       9.38898174      12.36909426      -0.04394749       0.17517149       0.00670823        4
O        5.04626220      10.69583470       0.64276135      -0.44757730      -0.22750697       0.20465379        5
H        5.05795162      10.00880261      -0.06039913      -0.25560789       0.09237224       0.25792221        5
H        4.36170200      10.45477902       1.29257234      -0.13385409      -0.02455692       0.04734250        5
O        9.75011693       4.02937943      11.66959191      -0.20167026      -0.69892661       0.81378329        6
H        9.26771463       4.15904844      10.83164212       0.02995413      -0.13239227      -0.22137122        6
H       10.48562435       3.41231066      11.47319172       0.11119083       0.27798202      -0.15807834        6
O        7.89764648       1.57546640       8.23403478       0.35503051       0.08884007      -0.46270439        7
H        7.08048311       2.08421243       7.99600099       0.14695816       0.19476582      -0.24581443        7
H        8.23310766       1.12820716       7.43091274       0.09209057      -0.01267885      -0.05834779        7
O       11.40001793       3.99706968       4.65781169       1.25220770       0.63894535       1.45219374        8
H       11.96306570       3.91535156       5.45466581      -0.10242937       0.11860151      -0.07798902        8
H       11.00960804       4.89382670       4.71873983      -0.06007682       0.01069133      -0.09616347        8
O        3.72903663      12.96624832      14.41248714       0.50057643      -0.77015318      -0.22479476        9
H        4.32524344      12.26233017      14.74702352       0.42357665      -0.04404107       0.29338562        9
H        2.88708214      12.49838747      14.23498332       0.16667252       0.18327238       0.19733128        9
O        1.69894334       5.89358925       6.19355869       1.15057427       0.23660170       0.12921720       10
H        1.53461349       4.99420634       6.52463027      -0.23306138      -0.36102217       0.09381440       10
H        0.89676566       6.13918550       5.68396912      -0.13797931      -0.17386618      -0.26306347       10
O        0.92974915      13.44945386      11.82072930       0.18454585      -0.61756908      -1.53094535       11
H        1.77952238      13.77012139      11.45026772       0.13551318      -0.03340928      -0.05507808       11
H        1.11616814      13.08768306      12.71544768       0.01116989      -0.09282503       0.30092735       11
O        4.33010793       6.65729626       5.47621073      -0.11764148       0.00853739       1.51998179       12
H        4.30891530       7.26616283       4.70712893      -0.23135378       0.14198670      -0.09299105       12
H        3.41283151       6.35443925       5.63091157      -0.01063810      -0.11318092      -0.12563317       12
O       12.09315748      11.74199080      14.39840638       0.70291281      -0.57902945      -0.38392203       13
H       12.54547591      12.51394182      13.98770403      -0.10139564       0.13389581      -0.41026855       13
H       11.63479404      12.10729949      15.19182830      -0.02854706      -0.16116729      -0.01467383       13
O       13.86129262      11.97860456       5.47275403       0.62521494       0.90137935       0.98647357       14
H       13.63435265      11.45505425       6.27037429      -0.06548541       0.18151277       0.10039217       14
H       13.37776170      12.82761302       5.51735967      -0.09978882      -0.17391342       0.04385418       14
O       10.28049048      11.87474488       5.30267326      -0.44342157      -0.71125279       0.14197473       15
H       10.66926029      11.07013911       4.92310281       0.19504407      -0.10652886       0.17898168       15
H        9.48416790      11.99892511       4.75140834       0.01491361       0.02713883      -0.05144337       15
O       13.62458757      10.25874981       7.65693163       0.60445919      -0.07389274      -1.41804773       16
H       13.22636041      10.66908919       8.44898076       0.09029856       0.27239099      -0.04290805       16
H       14.58860018      10.40716311       7.77047512      -0.05828056      -0.12452528      -0.03003125       16
O        6.55404588       2.53334537       3.63013378       0.15794308      -0.56572494      -0.38706869       17
H        7.33523531       2.38542144       3.05376262      -0.14440791       0.25739345       0.00995303       17
H        6.52549984       1.74379373       4.20772837      -0.17351546       0.21144791      -0.36585936       17
O        4.77989252      11.64562748       4.16524750       0.64775811       0.30747831      -0.76453851       18
H        3.91292396      11.47115981       4.56279625       0.04869216       0.10290564       0.24399948       18
H        5.44530823      11.41614214       4.83415432      -0.02645013      -0.02475370      -0.27965934       18
O       11.61700055       5.22082985       8.92235241      -0.29129504       0.12331335      -0.43731234       19
H       10.70051119       4.88325407       8.89212207      -0.19250733      -0.06923419      -0.14608304       19
H       11.75763078       5.54979282       9.82763623      -0.02763074       0.02955236      -0.00116352       19
O        9.36840019       3.67482817      14.46348437      -0.16532931       0.71246857       0.47765776       20
H        9.26782314       3.72907551      13.49430393       0.15813624      -0.12179301       0.19526906       20
H        9.37833344       4.60273489      14.76205384      -0.04954079       0.19797071      -0.05291460       20
O        1.68039043      14.03285556       8.10793551      -0.62334893       1.01301993      -0.27424254       21
H        0.81126622      14.12771450       8.55958860       0.29245081      -0.13672607      -0.12759435       21
H        1.75420041      14.83212364       7.56731397       0.25747322      -0.19147034       0.13811926       21
O        5.13528741       5.57451663       9.24723212      -0.43490464      -0.28510364      -0.06510580       22
H        5.80580210       5.53471635       9.97579547      -0.01058293      -0.26887050      -0.22841188       22
H        4.59141643       6.36633017       9.47575909       0.11812614       0.26316440      -0.05822065       22
O       10.38246988       6.64737918       4.62934177      -0.24053116       0.44681890      -0.39472016       23
H       10.03298921       6.99583019       5.46794326       0.03968308      -0.01312450       0.27796004       23
H        9.57805578       6.57950621       4.07204235      -0.08551840       0.00418244      -0.31384148       23
O       12.68881008       0.28673277       1.55311561      -0.00638403       0.64610248      -0.40210347       24
H       13.00957384       0.81144152       2.31526087      -0.15886691       0.04170660      -0.13155374       24
H       11.97692737      -0.30380874       1.87566805       0.11776180      -0.11709869       0.16772523       24
O       10.10411452      14.42091769      13.05835945       0.04029024       0.42481549      -0.52994554       25
H       10.83786136      13.90230177      12.69941409       0.02207749      -0.14099701      -0.09498751       25
H       10.54094628      15.21064241      13.44960577      -0.00844111      -0.19167386      -0.04488395       25
O        5.46531253       8.39722078       7.29075072      -1.34995329      -0.17381952       0.31331128       26
H        5.97368297       9.01560444       6.73806724       0.04023767       0.07421889       0.19517837       26
H        5.04255981       7.74164310       6.68942251      -0.02725068      -0.08590864       0.06582128       26
O        4.08034436       5.87167263       2.04772234       0.05989609       0.64109556       0.16834114       27
H        4.88995600       5.59316818       1.57046723       0.17312788      -0.04050731      -0.13514219       27
H        3.36052536       5.89680919       1.38607667      -0.36895299      -0.19163605       0.25109833       27
O       12.39734353      11.82234469       9.75519376       0.37625431       0.15599383       0.19242742       28
H       11.67985141      11.91336722       9.09576616      -0.00642274       0.13491716       0.31283372       28
H       12.91429272      12.65178050       9.71980402       0.02449121      -0.09589008       0.34110729       28
O        8.04982366       6.73775745       3.10268225      -0.35408111       0.05639624      -0.65394451       29
H        7.45646620       6.11037564       3.57422098      -0.30468516      -0.01102616      -0.04989559       29
H        7.71993801       7.62931908       3.32001807       0.13083385      -0.11183612       0.17645721       29
O        1.74229575       0.11069106       3.19556476       0.46654481      -0.54480048       0.08714613       30
H        0.99985388       0.68704593       3.49294906       0.19435732      -0.24788474       0.13363948       30
H        2.43877677       0.12661529       3.87908231       0.12011430      -0.32063911      -0.00061475       30
O        8.94791172       0.04607993       6.08884716       1.30390641       0.59496042      -0.31463945       31
H        9.45478398       0.55303455       5.40779117      -0.22099391      -0.42186436      -0.16260176       31
H        9.42426811      -0.78662509       6.20689696      -0.13914601       0.06130306      -0.10453142       31
O       13.70460904       5.89436087      13.44998585       0.53782770      -0.61060938       0.60660632       32
H       13.75799225       5.06472797      13.95791528      -0.19746002       0.13495872       0.01977067       32
H       12.96491423       5.81982380      12.81025582      -0.04938166      -0.04937145       0.06513185       32
O       12.58917413      14.53477382       5.36985348       0.83827285      -0.48166394      -0.25209077       33
H       11.78958880      14.70698050       4.84388631      -0.10101940       0.07479948      -0.05326630       33
H       12.38934984      14.89522090       6.26365860       0.05706843      -0.19572360      -0.20303420       33
O        5.82301741       2.90671750      14.03604608      -1.49308688      -0.30098014      -0.49662334       34
H        4.85544311       3.06227236      13.92818096      -0.24575932       0.13828608       0.00337475       34
H        5.85998698       2.09519493      14.57863928      -0.07391906       0.11038217       0.24868389       34
O       14.61759105       8.67399320      11.74274345      -0.14004771      -0.24656496      -0.10627363       35
H       15.07165999       9.45743000      11.36348074      -0.15394530      -0.05245349      -0.04770365       35
H       14.24545240       8.99764904      12.58735388      -0.02216310      -0.00082097       0.16293676       35
O        1.56716779       7.83574625       8.28718617      -1.06113616       0.05316429       1.11038127       36
H        0.78928792       7.49078912       8.76744362       0.14913736       0.09458815       0.10911807       36
H        1.67776237       7.22119806       7.53800097      -0.16731596      -0.00675619       0.09465569       36
O        3.64562471      14.47906966       5.29442002       0.39706002      -0.17538580       0.01579331       37
H        4.56382069      14.34440055       4.98980882      -0.00865743       0.02756936      -0.17865305       37
H        3.64875497      15.43470405       5.55344952       0.09623231       0.07776920      -0.10150168       37
O       14.37075517       2.23508389      10.50845440      -0.28341378       0.64909795       1.05286905       38
H       14.67901377       2.38310068       9.59649508       0.11558044      -0.08555836       0.04628308       38
H       14.85145201       2.89074082      11.05632784      -0.12917635      -0.17854211      -0.21460651       38
O        1.16482155      12.10184280      14.15113314       0.89232482       0.16577284      -0.27209052       39
H        0.71008479      11.24090141      14.03348394       0.23982791       0.05702197      -0.09272707       39
H        0.78608996      12.45950521      14.98555424      -0.09664697       0.20481894      -0.17762823       39
O        3.31831485      14.03321220      10.47668245      -0.60203727      -0.94740442      -0.09824513       40
H        2.93082102      13.97127264       9.58311775      -0.06369931      -0.02030265      -0.20455059       40
H        3.64928848      14.95940062      10.56030555      -0.08742668       0.02268719       0.06200562       40
O       10.27104817       9.36025619       3.59348516      -0.02484911       0.67056957      -0.54680201       41
H       10.61107606       8.49803211       3.90074248      -0.03825499       0.14054763       0.23092161       41
H        9.30992659       9.27885723       3.69345581       0.12370083       0.13687913       0.07833326       41
O        6.43964660      14.64762601       4.84032383       0.16536741       0.40007680      -0.00665766       42
H        6.50960811      14.13743167       4.00478516       0.10417847      -0.13744672      -0.17477044       42
H        7.27227187      14.49806809       5.32925875       0.01866870      -0.07318790      -0.16471451       42
O        2.55854398       0.64714436       0.67915620      -0.58673310       0.16007470      -0.45733028       43
H        3.01210869      -0.17953073       0.39666992      -0.29769055      -0.06799516      -0.14057520       43
H        2.25142932       0.48493724       1.60369816       0.36392445      -0.02144586      -0.08373252       43
O        4.07973399      10.21375981      10.99871871       0.10683232       0.17388782      -0.77576218       44
H        3.14159118      10.47135020      11.13335421      -0.19091267       0.19645605       0.21768092       44
H        4.20178832      10.33273971      10.02613601       0.32575159      -0.04343524      -0.01957309       44
O        4.70283059       8.29862181       3.25467610       0.43990547       0.26520937      -0.41276678       45
H        4.01639865       8.97005748       3.04983541      -0.07887891       0.03610026       0.02523684       45
H        4.50435624       7.52470869       2.68303510      -0.13677181       0.05289566      -0.11947843       45
O        5.65406735       2.96315673       7.78507829       0.48945014       0.00517324      -0.61783765       46
H        5.42944721       3.79019466       8.23465664      -0.03712184       0.30224028       0.11455798       46
H        4.99839756       2.83694862       7.07060065      -0.19155575      -0.25238902       0.16129511       46
O       14.04823412       6.87264404       9.80119367      -1.13110076       0.45887927       0.63131920       47
H       14.07750426       7.51031683      10.55042925       0.21116379      -0.10452889       0.10611743       47
H       14.17093969       6.00384094      10.19968851      -0.16095660       0.24372758      -0.12216844       47
O       14.17388090       9.89019434      14.14418275       0.23362222       0.33460032       0.76841798       48
H       14.53421636       9.35736045      14.88701768      -0.01348888       0.11582540      -0.10844153       48
H       13.39176714      10.38987321      14.44461344      -0.04815171       0.07567785       0.06977955       48
O        1.17320292       3.96045510      12.09741190      -0.61545467      -1.02912615      -0.36252553       49
H        0.82317291       4.82219662      12.38584204      -0.11025008      -0.00602297       0.11513376       49
H        1.82249909       4.18406855      11.39583149      -0.30479812      -0.04256079       0.02364787       49
O       13.17255671       8.20387688       2.92047779       0.09223600       0.49268060       0.12097926       50
H       12.99853375       9.16804600       2.96425679      -0.07069947       0.03095671      -0.00374755       50
H       12.58289113       7.81099517       2.24484406       0.05422144      -0.19787841       0.08279276       50
O        5.31530305       0.25133221      13.17061576       0.30333263      -0.67201226       0.90756489       51
H        4.74693686       0.79455463      12.60105146       0.24869850       0.10526472      -0.01319926       51
H        4.78324635      -0.52327695      13.43407688      -0.16127561      -0.26908220       0.12718117       51
O       11.94011418       4.08039135       1.88888987       0.56582913       0.44617233      -0.58490950       52
H       11.86019614       4.00682038       2.86061850       0.27294278      -0.10344995       0.35283503       52
H       11.80854742       5.02331567       1.67344472       0.19605866       0.16472644       0.29888765       52
O       11.88362385       6.75914546       0.90741415      -1.03097981       0.96644904       0.16902223       53
H       12.46165230       6.65896248       0.12589567      -0.11574914      -0.06258632       0.03097135       53
H       10.96319293       6.83022494       0.59150118       0.25215490      -0.26251677       0.15570631       53
O        6.30411951       5.22846903       0.53826350       0.63146770       0.08950216      -1.03872091       54
H        6.29541311       4.30159310       0.19537715       0.04923443      -0.26031308      -0.15439527       54
H        7.22901925       5.51487279       0.57654646      -0.00689620       0.00265631       0.06000785       54
O        3.46031336       7.50048530      10.15876612      -1.03992670      -0.45605068      -0.79074328       55
H        3.81292856       8.35463840      10.46218467       0.20166316       0.04344592      -0.10638785       55
H        2.79395720       7.70021230       9.45168089      -0.02712394       0.15114936      -0.05543751       55
O       10.81052587      11.08438772      11.98085998       1.57165144      -0.19208886       0.03987306       56
H       11.24641374      11.28491886      12.83212736       0.11270221      -0.00014458      -0.15795825       56
H       11.40973791      11.39802882      11.27008850       0.07753377       0.03836505      -0.10559371       56
O        8.52160518      12.04801342       3.09280440       0.33798757       0.51448046      -0.18920713       57
H        7.81241598      12.64863653       2.79196215      -0.03420195       0.22179500       0.43780223       57
H        8.13431336      11.16500517       2.96971094      -0.16819436      -0.17658646      -0.07180250       57
O        9.05417935       6.41503028       0.49115694      -0.29500161       1.39558809      -0.86360029       58
H        8.72759047       6.71062665       1.36388320       0.08524176      -0.12084487      -0.28519429       58
H        8.67405059       6.99431620      -0.20667363       0.15368314      -0.00645409      -0.10933801       58
O       12.68166825       7.65312034       7.37569935      -1.03443864       0.84804335       0.20355574       59
H       13.15836533       8.50881797       7.43584652       0.09068272      -0.26302809       0.02796296       59
H       12.96415368       7.14729419       8.15820889      -0.05261766      -0.07457175      -0.10153334       59
O        1.86990231       6.73444130      12.35596716      -0.12112623       0.37493299       0.06726455       60
H        2.51213275       6.90242951      11.63495814       0.02781531      -0.10199605       0.05103120       60
H        1.18123184       7.42170338      12.23234381       0.07135052       0.10948303      -0.10654504       60
O       14.34320340       3.88153177       0.71489799       0.53592599       0.28858654      -0.10221558       61
H       13.43375019       3.82112772       1.10257189       0.12410003       0.18390138      -0.00826954       61
H       14.53235268       3.01192755       0.30704264      -0.15253384      -0.12297282      -0.41685858       61
O        7.67023685      11.41288066       0.03995938      -0.05374466       1.00749145      -0.41222028       62
H        8.34174312      10.78625129       0.37787813       0.00477834      -0.15225431      -0.34129455       62
H        6.80706340      11.14070923       0.40758700       0.11159779       0.07230370      -0.28412268       62
O       13.88029877       6.46628102       5.02017382      -0.41014185      -0.74623781      -0.54437813       63
H       13.36600727       6.73143239       5.80893734      -0.22820545       0.07247279       0.20051875       63
H       13.61922375       7.10751725       4.32884920       0.10340298       0.16597550       0.33028644       63
O       13.89189248      14.22654536       9.40973978      -0.32489428       0.37691416       0.51100735       64
H       13.32733004      14.81217718       8.85381117       0.08707432      -0.19048723       0.01987803       64
H       14.13119031      14.76528454      10.18008023      -0.15143498      -0.27337086       0.10929387       64
O       12.20589795       1.02857186       7.81650559      -0.21514317      -0.07684900       0.22379115       65
H       11.38447677       0.99533210       8.34951564       0.03484424       0.35320264      -0.38563676       65
H       12.36786279       1.97813029       7.60492111      -0.34640781       0.11775414      -0.16147763       65
O       14.10384793       1.45153876       3.69797714      -0.27390303       0.58995042      -0.91553023       66
H       13.64709951       1.04597795       4.46491637       0.02285789       0.17482367      -0.01786573       66
H       14.23186129       2.40821208       3.86219379      -0.13621552      -0.03002566       0.08607184       66
O        8.46975710      14.07351527       0.63949305      -0.74027670       0.67560973       1.62062021       67
H        7.99937426      13.22229530       0.59731955      -0.05870313       0.22334853       0.13393042       67
H        9.13724626      14.01747427      -0.06486224      -0.05947354      -0.03006245      -0.19363184       67
O        3.04544530       3.66233114       3.55093237       0.08225421       1.22695484      -0.64030473       68
H        2.10298825       3.89806108       3.62529046       0.41120044       0.03397538       0.11019863       68
H        3.47011299       4.40737357       3.08470477      -0.20112585      -0.10065572      -0.01496411       68
O        8.66869133       1.81969394       1.93564599      -0.35698746      -0.48628836      -2.08124445       69
H        8.87792200       2.45090216       1.22233335       0.11812845       0.05727220      -0.21425956       69
H        8.49029230       0.96066577       1.48958157       0.08180649      -0.07334155      -0.14455431       69
O        1.35447898      10.87596917      10.79539401      -0.30159223       0.26128310       0.09942252       70
H        1.09305027      11.75303960      11.14530219       0.37012657      -0.20844621       0.28791056       70
H        1.33145725      10.98604105       9.81895372      -0.21099062      -0.03024634       0.14681957       70
O       10.16459590       0.87434149       9.66308415       0.03465524      -1.23907367      -0.78111420       71
H        9.36305224       1.37833440       9.44286037       0.18257674       0.10711510       0.37622276       71
H       10.63416593       1.30679852      10.41088058      -0.26858378       0.12769225      -0.21740548       71
O        0.22210537       1.42687604      14.02789328      -0.61528926       0.28946671      -0.69485348       72
H        1.02405269       1.03645940      14.43882712       0.04298846      -0.22243391       0.07032394       72
H        0.49249969       1.67320308      13.13314855       0.19567064      -0.07562486       0.04218549       72
O       10.35337272       1.40150929       4.17763715      -0.60068763       0.05453664       0.67179957       73
H       10.64181845       2.31040150       4.40304398       0.06667839       0.36485643       0.28021169       73
H        9.85144365       1.49895930       3.34150914       0.24421188      -0.07928295      -0.01864996       73
O       13.06936179      10.99524646       3.06907640      -1.28822562       0.00629384       0.30313832       74
H       13.70911771      11.51272124       2.54110558       0.03420815      -0.10042272       0.25808427       74
H       13.29945625      11.25288634       3.99265058       0.16193941      -0.03225844       0.17518034       74
O        6.17934566      13.35063856       2.43097353       0.05832078       0.27644074      -0.70197220       75
H        5.79322089      14.13253169       1.98040446      -0.17139176      -0.14734618       0.41347119       75
H        5.46293106      12.78097326       2.76319826      -0.13329855      -0.03216481       0.06841109       75
O        1.45905605      11.22835336       8.05001295       0.05499385       0.77073523      -0.77058618       76
H        2.34614923      10.81741848       7.96798041       0.48865455       0.16611815      -0.10675169       76
H        1.57145869      12.17302715       7.83836678       0.20575109      -0.09631495      -0.31039165       76
O        7.25502760       5.76192692       7.35605113      -0.02517542      -0.38619950       0.73051987       77
H        6.43257713       5.82041879       7.88015842      -0.04568625      -0.01448563      -0.08804151       77
H        7.01299078       5.35600823       6.49617985      -0.17924049      -0.12988823      -0.08645749       77
O        7.16661248       5.47277150      11.00957684       0.63399746       1.21398369       0.26068519       78
H        7.27989312       6.03042546      11.80072356      -0.08057937       0.12534469      -0.14189807       78
H        7.16690073       4.54032926      11.29442774      -0.20932514       0.04941742       0.06022188       78
O        1.97701112      11.91324621       4.57388764       0.17863842      -0.37551694      -0.64478917       79
H        1.08736917      11.85867718       4.97190600      -0.18166059      -0.20767491       0.03717960       79
H        2.24730772      12.83316448       4.70362648      -0.02222529       0.11764495       0.27301242       79
O        0.80686695       8.47637840       1.46321568      -0.37820081      -0.68828381       0.42469633       80
H        1.12701316       7.61464831       1.12009087      -0.24142327       0.13769888       0.31697208       80
H        0.07054405       8.27771613       2.08286242      -0.20037231       0.09166460      -0.14789988       80
O        8.66572386       7.94392212       6.59295224       0.37299099      -0.64690275      -0.31434112       81
H        8.01132858       7.26644369       6.88150087       0.14640158       0.07361415      -0.08316081       81
H        8.19233189       8.77650384       6.44052068      -0.29891548      -0.33437678       0.08361766       81
O       10.36249518       8.73169855       8.57688242      -0.29051761      -0.71027235       0.03479995       82
H        9.66937231       8.37980758       7.97705005      -0.06079578       0.02287785      -0.11289162       82
H       11.18537004       8.33870786       8.21218434      -0.04792015       0.14609396       0.02176417       82
O        7.61121845      14.44209262      11.84833099       0.53193691      -0.49639836       1.12332417       83
H        8.44195489      14.40400478      12.37170608      -0.21239284       0.33497798       0.23304486       83
H        6.82806560      14.55310242      12.45423603      -0.11938778      -0.16896751       0.05489942       83
O       11.07788927      12.70758954       2.08665239       0.20536054      -0.05722440       0.32844500       84
H       11.60432266      12.08753992       2.63177435      -0.06352508       0.07168871      -0.13159667       84
H       10.13894995      12.55041648       2.31581469       0.34601622      -0.01231817      -0.46652783       84
O        9.16936459      13.04199090       9.97087339      -0.69049675       0.11646247       0.68655269       85
H        9.45258811      12.48244872       9.21128769      -0.22993114       0.03511252       0.12408673       85
H        9.56532535      13.93862987       9.87589587       0.11935547       0.07900454      -0.02631252       85
O        4.20516488       1.85613565      11.03657318       0.02557180      -0.71513664       0.18680498       86
H        5.13788741       2.13609382      10.93932401      -0.19577723      -0.11197161      -0.16247696       86
H        3.67414640       2.58291010      10.65743008       0.15102537      -0.03707270      -0.01481652       86
O       10.12234056       8.43790057      11.33514321      -0.54911843      -0.54571462      -0.11691683       87
H       10.42891148       9.31930031      11.63023530       0.02874353      -0.10052823       0.29604841       87
H       10.13633576       8.48547560      10.35418314       0.13862255       0.03356746      -0.05449816       87
O        1.76986198       6.09460087       0.40988144      -0.68805788       0.05988273      -0.14903908       88
H        1.77083951       6.30732293      -0.54783226       0.13397842       0.13929847      -0.13097594       88