340
Lattice="14.560660492283056 0.0 0.0 0.0 14.560660492283056 0.0 0.0 0.0 14.560660492283056" Properties=species:S:1:pos:R:3:momenta:R:3:molID:I:1 total_charge=0 exec_time=1758997221.2454898 step=156400 time_fs=78199.99999992663 time_ps=78.19999999992663 charge=0 spin=6 Nmols=116 Comp=---UNK_Cl(3):UNK_Fe(1):UNK_H2O(112) pbc="T T T"
Fe       7.76173318      10.38217203       7.89765110       0.97442658      -1.60700182       0.04167982        0
Cl      13.45808177       4.97999239       9.35203431       0.02804458      -0.25546975      -1.26136108        1
Cl       4.05846134      14.44491557       7.68964140       0.57534441      -2.04015542       0.89683076        2
Cl      11.40618101       7.53704877      12.31723337      -1.92982412      -1.01575202      -0.45560013        3
O        6.31467407       9.75622884       6.73835185      -0.83742687      -1.56654527      -0.21566894        4
H        5.60494396      10.42428953       6.47634562       0.03678271      -0.12040612       0.02167857        4
H        5.91880658       8.87406968       6.88924150      -0.08343753       0.15924135       0.01655038        4
O        4.52024903      11.09632429      13.54428595       0.96903468      -0.24186586       0.24087083        5
H        4.72225335      11.76584531      12.85650547      -0.01998388       0.34537177      -0.21951100        5
H        4.22520006      10.29811847      13.06017925       0.08978485       0.09633456      -0.12408494        5
O       12.95894673      10.28475609       1.11414559      -0.90521713      -0.37274047       0.35629870        6
H       12.63335677      10.38319178       2.02746555       0.12314011      -0.05871362       0.20672941        6
H       13.25200565       9.36593267       1.00270309      -0.30138196       0.13516571      -0.38720515        6
O        2.76032876      12.65864760       0.42587758      -0.29800588      -0.56627233      -0.40417956        7
H        3.34349552      12.03196063      -0.05746717       0.16420482       0.07540576      -0.01737598        7
H        3.22195874      12.94235289       1.23794305      -0.10545526       0.04887073      -0.18082197        7
O        0.27859738      12.32205702      12.35475211       0.16854074      -0.28280238      -0.21640321        8
H        0.40664007      13.20129205      12.75180517      -0.01277045       0.00561065       0.09936376        8
H       -0.63603247      12.27333241      12.01278682      -0.07157998      -0.27250361       0.08854377        8
O        5.65853061       3.47370148      10.82890327      -0.15012043       0.25915148       0.57900865        9
H        6.38144863       2.90941073      11.18913933       0.25057743      -0.23611485      -0.00801176        9
H        5.23416798       3.87707280      11.61325629      -0.24568287       0.39452385      -0.03472329        9
O        8.90019603       7.46983348      10.42648710      -0.83362630      -0.36296021       0.24693677       10
H        9.42366773       7.59415085      11.23588873       0.06770720      -0.26727154       0.07755865       10
H        8.18810822       6.81408944      10.57784064      -0.05479428      -0.12509707      -0.04847951       10
O        1.82530295      10.71348476      10.65218155       0.32992002       0.80753162       0.27552699       11
H        2.50779586      11.19637485      10.14650040      -0.36369342      -0.10023669      -0.26192726       11
H        1.33162541      11.37508905      11.17559921       0.38524350       0.12010477      -0.00877802       11
O        9.77318240       7.77838651       0.59158673       0.81820176       0.86108144       0.38717066       12
H       10.41856508       7.24528167       1.08179894       0.02699215       0.03632766      -0.17068111       12
H       10.11398554       7.77639619      -0.31872374       0.25650395       0.14691783       0.28210116       12
O        5.59622457       0.81490922      13.53989247       0.24644422      -0.76437812      -0.14063091       13
H        4.82712958       1.42230336      13.58844585       0.09007835       0.30043496      -0.31111661       13
H        6.31774817       1.25945259      13.05385579       0.03382695       0.19220630       0.14704470       13
O        1.05739469       3.65711930       7.39766284      -0.11295325       0.30794959      -0.13246566       14
H        1.06859347       2.68107064       7.33324578      -0.04071871      -0.00761206       0.09286116       14
H        0.45660909       3.86604881       8.13411625       0.06223311       0.18288268      -0.03663201       14
O        8.09693685      13.04951259       3.27323883       0.20454525       0.25398095       0.88418847       15
H        7.56019484      13.44262111       2.55501560      -0.02965980      -0.02661726       0.01330710       15
H        7.93533482      12.09877166       3.22038575      -0.15768531       0.30578186       0.01641337       15
O        7.64505812       1.96349517      11.93268539       0.07233295       0.23184238       0.10125951       16
H        8.02252213       1.51335219      11.14544544       0.41557645      -0.01213758      -0.03499123       16
H        8.29802091       2.67296636      12.11113841      -0.18332721       0.20418063      -0.09143177       16
O        3.57155000       8.92171817       4.94540590       0.56149064       0.05587647      -0.38654241       17
H        3.51470278       9.10054730       5.91025627      -0.28303560       0.05941326       0.16076550       17
H        3.04996622       8.10229688       4.83587152      -0.32064916       0.13180414       0.16953640       17
O        1.93476672       2.80712592      11.29053175       0.49930352       0.60473597       1.27262380       18
H        2.56750523       2.77504520      12.03223733       0.15606397      -0.06800950       0.11647252       18
H        1.98476778       1.90210680      10.93261850       0.00214106      -0.17481068      -0.00389709       18
O        1.04847618       8.61477126       8.92324231      -0.01552224       0.63281631      -0.56498892       19
H        1.10594798       9.33709654       9.58003504      -0.05907456       0.28713935      -0.07064230       19
H        1.25924437       7.79617600       9.40590648       0.12143038       0.12216212      -0.17042462       19
O        7.55182248       4.33209825       1.24754796      -0.68520210      -0.13306586       0.46721194       20
H        7.91511561       3.50709652       0.86190016       0.20295471       0.02697515      -0.08833514       20
H        7.82278058       4.31800369       2.18822312       0.03010808       0.24183735       0.21270960       20
O        4.89893826       2.97461347       5.24761696       0.08701889      -0.72023389       0.11718265       21
H        4.94223952       2.92636044       6.21438098      -0.38396985      -0.07312754      -0.10495180       21
H        3.95277039       3.09473473       5.01511804       0.50404575      -0.01134321      -0.17300548       21
O        1.37857806      14.49414423       4.13505327       0.22738241      -1.13471773      -1.03342293       22
H        2.20314499      14.06028973       3.81914884       0.06024611       0.11659003      -0.00101887       22
H        0.73283499      13.78606305       4.32018897      -0.16576363       0.22046929       0.14720136       22
O        7.92826334      14.11829816       5.90233183       0.30703953      -0.19160855       0.40591269       23
H        7.68008926      13.92593961       4.97753532      -0.09122009      -0.17586078      -0.37462655       23
H        7.45962747      14.92737277       6.18189745       0.32195515       0.08549618      -0.06379897       23
O        1.01436096      11.10978905       3.64463020       0.93530467      -0.22244921       0.17181274       24
H        0.71699552      11.63928485       2.87519998       0.09336257      -0.01815824      -0.10087278       24
H        0.70012278      10.20788585       3.47698349      -0.05203439       0.20156512       0.19838994       24
O        0.80804853       5.48634573       0.17259550       0.07230709      -0.66957367       0.22599661       25
H        0.16285962       6.23342784       0.19247199      -0.22331117      -0.33987127       0.22562943       25
H        0.44265551       4.78814475      -0.42405346       0.08097952      -0.15140221       0.29247438       25
O        0.20563693      13.82867929       9.12190253       0.53451894      -0.02448301      -0.37107913       26
H       -0.47679372      14.24271086       9.69361639      -0.13775943       0.34435844      -0.28199371       26
H        0.36200489      14.44022469       8.37521610      -0.04077728       0.27914576       0.13976553       26
O        7.41274192       4.83366502       6.47580002       0.50910272      -0.75155264       0.29738775       27
H        8.16630762       5.42829624       6.65998307       0.09308392      -0.08435777      -0.31685295       27
H        6.63306617       5.41669338       6.58053977      -0.00196093       0.03339342      -0.20970982       27
O        1.04269313       9.89585281      13.75793788      -0.51033236      -0.72556708       0.22151631       28
H        0.64159095       9.23169341      13.16818103       0.10089332      -0.01704886       0.06992403       28
H        0.77951449      10.75986659      13.39682463      -0.22350012       0.10374030      -0.02137014       28
O       11.66836150       2.20405952       9.32480448      -0.01920246       0.39920419       0.44784395       29
H       11.38625936       2.45398591       8.42097058      -0.11680701      -0.21933122       0.05116054       29
H       12.22917553       2.95266269       9.58504919      -0.07678979      -0.06189106      -0.14775272       29
O        4.02442471      10.79249408       2.81985602      -0.71723043      -0.44816292       0.74189949       30
H        3.96598355      10.26533730       3.63777054       0.21513812      -0.07615628       0.08811604       30
H        4.93083583      10.74960323       2.46249639       0.12795576      -0.01993762      -0.00823303       30
O        5.30730898       6.78611487       6.80602161       1.73554533      -0.03002181       0.31594616       31
H        4.78790689       6.41297440       7.54339558       0.02410344      -0.13733953       0.21637398       31
H        4.66807909       6.71368008       6.07630782      -0.39435012      -0.01426779      -0.10729101       31
O        0.60808721       8.31917872       3.42486662       0.90262936       0.15379313      -0.25614609       32
H        0.14683158       7.47090064       3.30320481       0.24952606      -0.17715420      -0.20778794       32
H        1.26153472       8.38550339       2.69856900      -0.06112076       0.08111840       0.10017845       32
O        3.21013946       2.16536014      13.70179778      -0.83392051       0.19155739       0.47497452       33
H        2.99231458       2.72532425      14.46915175       0.10607133      -0.16746621      -0.00164034       33
H        2.55275331       1.43023708      13.72518548       0.07124699      -0.20204645      -0.02330082       33
O       12.12951593       4.51741726      12.16507895      -0.18263102      -0.10321783      -0.07019531       34
H       12.42585722       4.64690723      11.24262400       0.01331032       0.18449581       0.35090980       34
H       11.98522230       5.43770607      12.46402163      -0.30955151      -0.06549590       0.03475959       34
O        6.27228003      11.19970648       1.11419947      -0.50221321       0.26956698      -0.63593498       35
H        6.40257378      12.16991634       1.05299476       0.01472334       0.05789538       0.20715306       35
H        5.74373771      10.99770487       0.31134369       0.15885597       0.11247522       0.19553030       35
O        8.94020114       1.09930861       9.65272221      -0.60223801      -0.23521748      -0.10344783       36
H        8.43164720       1.40060666       8.87331809       0.09313479      -0.01835462      -0.04261435       36
H        9.77735746       1.59356607       9.64180644       0.18777421      -0.21705510       0.03127179       36
O       11.55543788       9.47852357       5.80180299      -0.72757961       1.04107000       0.00370835       37
H       12.48842141       9.63119651       6.05623612      -0.07305769      -0.19663903       0.01303981       37
H       11.56502725       8.52360868       5.57803066       0.12639329      -0.15492290       0.20480259       37
O        3.42117587       9.20767251       7.70182158      -1.43695736       1.40804203      -0.50165333       38
H        2.51508862       8.95590558       8.00086815      -0.07511087       0.19554230       0.09744379       38
H        3.51631580      10.13669709       7.99692448      -0.14203706      -0.01315324      -0.05916405       38
O       10.82462185      13.74974185       3.37204200      -0.00185806      -0.58135262      -1.14714105       39
H       11.33761884      13.90284639       2.54965119       0.13887018       0.06234471       0.14643195       39
H        9.92399927      13.46607599       3.11898085       0.16426049       0.06329714       0.01692237       39
O        2.72549849       6.51294342      12.85401875       0.86693454       0.28919020      -0.33303761       40
H        2.29943153       6.26980365      12.00486398      -0.17395045      -0.09415359       0.04263337       40
H        2.09157350       6.25985123      13.55317995       0.18445543       0.04540078       0.34519464       40
O       10.37045802       3.17476832       7.10392210       1.03078446      -1.62951617      -0.45963740       41
H       10.77878115       3.65677091       6.36049976       0.22680245      -0.05718251       0.18893522       41
H        9.90792031       3.79372438       7.71454220       0.00312307      -0.10783880       0.33600018       41
O        0.69695756       1.46800114       1.91466082       0.80335361       0.87004848       0.37743617       42
H        0.94209957       0.89605746       2.68055850      -0.00246505       0.22325703       0.00606351       42
H        1.40959804       2.11899337       1.83344872       0.00176954       0.10797357      -0.14431842       42
O        5.38990718       5.46110574       4.02150558       1.13365843       0.13536375      -0.31891077       43
H        5.36890682       4.64082771       4.54823003       0.15035262      -0.25385118      -0.29329652       43
H        5.10223442       5.21879194       3.12684421      -0.22086640      -0.00459798      -0.00139273       43
O        8.98100873      14.14307560      13.89320703       0.67877694       1.16741722       0.14078479       44
H        9.01452750      13.94105038      12.93437181      -0.29468757       0.06691093      -0.02118822       44
H        9.54036023      13.45336637      14.31448590      -0.15792103      -0.25626503      -0.03853300       44
O        2.47261056       3.72082860       4.20248777       0.19827604      -0.63532478       1.11680560       45
H        1.54691100       3.51989642       4.44463892      -0.19447971       0.10009739      -0.12302870       45
H        2.49577168       3.73488405       3.22681909      -0.07679253      -0.19177978      -0.13106613       45
O       12.24936207      11.94505489      11.15294570       0.48489743      -0.12629718      -0.95958238       46
H       11.62909795      11.51000319      11.79355084      -0.07266841       0.24934117       0.03701085       46
H       12.28180440      11.29938598      10.42647889      -0.12037496      -0.06720508      -0.24347887       46
O       11.58543299       5.92847359       1.85966964       0.74128911      -0.30497493      -0.38442757       47
H       11.44608946       5.08620792       1.37807679      -0.15510108       0.00752963       0.07200677       47
H       12.39444809       5.78580908       2.40344122      -0.04279012       0.10865143      -0.05721222       47
O        4.64957451      11.61328830       5.92262170       0.16434475       0.04222122      -0.83976121       48
H        4.86503384      12.48092019       6.30016593      -0.20509288       0.28405085       0.15716051       48
H        3.66927658      11.55844673       5.98877499      -0.45521772      -0.01270820       0.22725493       48
O        5.05096356       8.20247655       9.73064500       0.78963095      -0.66152088       0.73029867       49
H        4.44223440       8.38972444       8.98156209       0.03425859      -0.01695184      -0.13533758       49
H        4.53586963       8.42722903      10.54323459       0.14192569      -0.34095852       0.14912627       49
O        0.09685755       6.68310152       6.76240681      -0.15931451      -0.61402038      -0.33332813       50
H        0.08802530       7.65532487       6.88751647      -0.08870231      -0.37102651      -0.19120377       50
H       -0.14431840       6.29110228       7.61717640       0.16041543       0.04558854      -0.12815393       50
O       12.72678399       0.12103043      10.86396329      -0.03142621      -0.16794819      -0.94445822       51
H       12.32247719      -0.76872764      10.85543580      -0.01743722      -0.17647466      -0.02508576       51
H       12.20496026       0.69850101      10.27365816      -0.13205613      -0.10408981      -0.01448164       51
O        8.80885520      10.17448065       1.58321894       0.78518167      -1.50664282       0.47207566       52
H        7.93635990      10.39283674       1.18873947      -0.38234353      -0.13669273      -0.20283861       52
H        9.11784487       9.34628394       1.14975332       0.17530382      -0.05145998       0.09549980       52
O        3.41526845       5.24827818       8.38358046      -0.47179434      -0.57644612       0.17466290       53
H        2.73614603       5.09725770       7.70458014       0.14659012      -0.00775543      -0.08210452       53
H        3.84138873       4.37015400       8.45722371       0.01421274       0.16389389      -0.06740160       53
O        3.68357132      13.49452496       3.00793092      -1.57353881      -0.67162623      -0.16463348       54
H        4.44821401      14.01315838       3.32698898      -0.05375452      -0.05950549      -0.30376101       54
H        3.86049100      12.54756581       3.19415684      -0.12134879       0.27414964       0.02152507       54
O       14.51739300       7.92887722      12.06170549      -0.15522891       0.70611403       0.07672427       55
H       15.01328929       7.45733256      11.38143008       0.00823115      -0.03868622       0.17716474       55
H       13.58735333       7.91970793      11.77968849      -0.21222262       0.10017422       0.22253444       55
O        8.96313678       2.08176833       0.53976511      -0.01063609       0.42854386      -0.66874752       56
H        8.95964933       1.27753050      -0.02066925       0.06626125      -0.00010740      -0.13366284       56
H        9.14211342       1.77928247       1.45575910      -0.07086348       0.27076088      -0.03179382       56
O        8.29181901       9.24303588       4.05601275       0.87221205      -0.01096253       0.69593416       57
H        7.36913055       8.89170875       3.98969439       0.10824181       0.00813918       0.01667895       57
H        8.48415795       9.65867501       3.17904831       0.18745357       0.00534477       0.04214408       57
O       13.46061168       7.44286912       0.35637067       0.74990991      -0.76566762       0.94908252       58
H       12.72591717       6.98188215       0.80553715      -0.04781317      -0.32114618       0.17224735       58
H       13.13043440       7.60440936      -0.54392188       0.08198888      -0.10269027       0.09684214       58
O        8.46187886       4.34382219       3.93629773      -0.01615920       0.27638794       0.14844267       59
H        7.89672481       4.37606797       4.73824918       0.09638400      -0.17568570      -0.22186673       59
H        8.74161766       5.28335146       3.84285269      -0.09693125      -0.00955123      -0.15428144       59
O        9.59370923       6.80376381       3.87685951      -1.26859075      -0.98717893      -0.82302392       60
H       10.32294177       6.68930307       3.24459002       0.13226058      -0.05231816       0.24088956       60
H        9.19553717       7.69142411       3.75870085      -0.22604631      -0.04032299       0.07630289       60
O       12.48217434      13.86160331       1.11040298       1.01475917      -0.50336341       0.26585366       61
H       12.56335105      14.54211607       0.41194653       0.06509562       0.13228884       0.04123474       61
H       13.36598591      13.44324041       1.19014942       0.08199584      -0.29638269      -0.03276629       61
O        2.59885893       3.82751941       1.39076213      -0.62394422       0.25806219       0.81374630       62
H        1.97407070       4.49742737       1.03791197      -0.03432000       0.05573183      -0.01822359       62
H        3.47907000       4.26483456       1.36058386      -0.21899553       0.00845142      -0.16930503       62
O        7.73897592       6.00824254      13.30157205       0.85562158       1.05312469       0.12288367       63
H        7.86632282       5.73729471      14.22732041      -0.01859119      -0.29619190       0.13238667       63
H        6.81941602       5.75178567      13.08468437       0.00107918      -0.06411979       0.13964043       63
O       12.77932900       1.23756984      13.57608198      -0.60028898      -0.45654874      -0.05569645       64
H       13.58479777       1.78143808      13.49808883      -0.04666703      -0.41193619       0.09501154       64
H       12.67207608       0.84122709      12.69000944       0.03335696      -0.08067110      -0.07088177       64
O       11.36201500       3.39647677       0.53370250      -0.03701497       1.62462320       0.12468996       65
H       11.85493577       2.98728657      -0.19731686       0.15491604       0.07938588       0.13401781       65
H       10.47258672       2.98112006       0.46580838      -0.08441475       0.20816511       0.31353221       65
O        2.60950916       6.32887917       5.47331483      -0.50001163       1.30094607       0.50838648       66
H        2.60361272       5.52696489       4.92130837      -0.22723597       0.00790648       0.27133009       66
H        1.71909455       6.39592065       5.86891736      -0.25032667       0.05172125       0.19463745       66
O       12.78643546       1.02441660       5.16223795       1.13495143       0.84807632       0.89620065       67
H       12.61435107       1.32455009       4.24540715       0.02940460      -0.06173538      -0.19231029       67
H       11.90690817       0.85374174       5.57040836      -0.11002480       0.19987286       0.09187636       67
O        9.24244190      10.96858858       8.97439077      -0.74285008       1.99355902       0.90335112       68
H       10.07883114      10.41980304       9.00125491      -0.12015599       0.44420104       0.04411078       68
H        9.59382424      11.88416377       8.75776607      -0.06074409       0.00278360      -0.18336913       68
O        6.46349254      13.69759435       9.62261910       0.51454429      -1.11544069      -0.22196621       69
H        5.74588851      14.13622698       9.12780466      -0.11766181      -0.03526424      -0.06172793       69
H        6.03988583      13.42348988      10.46489347       0.20986461       0.05873280      -0.14104566       69
O        5.04336483       5.06715900      12.95843799       0.15356005      -0.25768849       1.21520974       70
H        4.25883342       5.64998080      12.84229298      -0.10319137      -0.03704710       0.14197992       70
H        4.97060011       4.79936369      13.89122568      -0.12052475       0.01590422      -0.32665689       70
O        3.58984470       9.00266806      11.92204867      -0.30914517      -0.37989743       0.51771047       71
H        2.83734933       9.55533419      11.61395705       0.33425932       0.10508380      -0.05619312       71
H        3.20677204       8.24998604      12.41317638       0.20629464      -0.01351696       0.03317887       71
O        2.47427915       8.97421611       1.36657313       0.51067855      -0.19981264       0.53189730       72
H        1.96954880       9.33039104       0.60170725       0.09313161       0.00746544       0.10360512       72
H        2.88458251       9.74839197       1.80564713       0.11189108       0.09655759      -0.07398939       72
O       14.37018583       3.76441937       4.98386355      -0.69090708      -0.44012931       0.42867438       73
H       14.67838273       3.89075403       5.91089394      -0.01628956      -0.04674669       0.06779187       73
H       13.78127387       2.99499644       4.99626095      -0.14638016       0.08467555       0.01688736       73
O        1.68998149       6.15220094      10.31973391       0.30099450       1.09181497       0.22988252       74
H        0.92369479       5.56295310      10.18718013       0.10144132       0.09134816       0.03624298       74
H        2.39293538       5.79115429       9.72756279      -0.02891529      -0.08543573       0.02928518       74
O        9.32599169       4.15267248      11.88452882       0.04530680      -0.30548093       0.04526354       75
H        8.89062559       4.87970094      12.37510772      -0.22409603      -0.11340022       0.03195558       75
H       10.28196183       4.20162198      12.08027860       0.06701821      -0.02639174      -0.05194293       75
O        9.06769254       4.50887530       9.04106683       0.72810853      -0.45529227      -0.35663736       76
H        9.22508366       4.36802266       9.99359364      -0.06402464       0.03062348       0.08541079       76
H        8.21597618       4.97160970       8.99616062      -0.28063466      -0.09865331       0.16215296       76
O        8.17067652       8.54039520       8.19034656      -0.55341417       0.76525502      -0.08210147       77
H        8.46983536       8.24086424       9.09661952       0.12905171       0.20841066      -0.11611874       77
H        8.62812774       7.97686963       7.50621124      -0.05429919       0.04081643       0.27941915       77
O       12.10253279      11.21794146       3.65441718      -0.02295418       0.61413753       0.88828021       78
H       11.51511918      11.99802181       3.64356434       0.18250114      -0.07671238      -0.22443300       78
H       11.76210883      10.60234010       4.33365893      -0.26731973      -0.11517992      -0.09213410       78
O        4.77232840      13.31386517      11.83570516       0.06323601      -0.10095674       0.10838361       79
H        5.05265831      14.02551174      12.45116464      -0.25813105       0.09192170       0.06707480       79
H        3.92981588      13.62749879      11.44969910       0.00643047      -0.11472558      -0.12599741       79
O        1.85977600      11.50793249       6.14029740       0.70158848      -0.43429333      -1.18610791       80
H        1.51792982      12.34363560       6.48240437       0.02128519      -0.30991595       0.07363906       80
H        1.54857784      11.46587072       5.20070596       0.09388755       0.01406764       0.30106083       80
O        7.14299696       8.83981301      13.63923261      -0.76419485       0.79315880       1.39553917       81
H        6.35582482       8.67264700      14.18359256       0.00515303       0.01146257      -0.08207453       81
H        7.49234094       7.94753265      13.47004834      -0.23433358      -0.22372415      -0.20112187       81
O        9.45366143       6.78266448       6.66881422       0.67555852      -0.50137176       0.58691387       82
H       10.26523886       6.76660828       7.22092432      -0.09238437      -0.30161796       0.13696392       82
H        9.73570537       6.84361869       5.73471444      -0.02305694       0.47925134      -0.34830215       82
O        7.21182061      12.20369343       7.64227431       0.03770270      -0.33377046      -0.68867077       83
H        7.58871666      12.82788908       6.96784478      -0.22235724      -0.08233190      -0.06943730       83
H        6.96948842      12.72103069       8.47745180       0.18854885      -0.08266165       0.08517880       83
O       10.67738896      13.12364618       8.52179955       0.13151705      -1.03552465       0.28064565       84
H       10.51082268      13.89707700       7.94923450       0.08713060       0.03243546      -0.09211400       84
H       11.52861259      12.75385722       8.20420633      -0.15430221       0.17740097       0.14160743       84
O        2.55382969       0.02064269      10.51384373      -0.65964963       0.43306537       0.26430933       85
H        3.03705092       0.09839458       9.66979312       0.27857322       0.35585535       0.07303887       85
H        1.71294764      -0.39194908      10.23205887      -0.01177298       0.07664512      -0.09794962       85
O        7.41724336      10.93312671      11.77187527       0.82821046      -0.67545146      -0.33792089       86
H        7.40011490      10.20988731      12.43459631       0.18710853       0.11137016       0.03867790       86
H        8.27640417      11.38129473      11.82935873      -0.26031813       0.11892899       0.17457796       86
O        3.92890982      11.59581280       9.06815355       0.31742948       0.18055100       0.44208795       87
H        4.84785708      11.42350112       9.33495965      -0.00957468       0.10070334      -0.13522809       87
H        3.93580878      12.47271499       8.63625357       0.24910680       0.09834116       0.32231854       87
O        5.81857211       0.66533939       3.83027716       0.29276156       0.08902985      -0.03271230       88
H        5.51771203       1.45018332       4.33202757       0.29812691      -0.35394566      -0.24807678       88
H        6.23174566       0.99998541       3.02512778       0.09843809       0.21637612       0.29239289       88
O        5.87564632       8.11079116       3.70381797      -0.39206235      -0.73292550      -0.62586193       89