65
Lattice="10.8 0.0 0.0 0.0 10.8 0.0 0.0 0.0 10.8" Properties=species:S:1:pos:R:3:momenta:R:3:ref_forces:R:3:dft_forces:R:3 image_index=0 dft_energy_ry=-3036.46432782 dft_energy_ev=-41313.20147709846 dft_scf_converged=T dft_max_force_ev_per_ang=0.30605390939016364 ref_energy_ev=-41313.20147709846 pbc="T T T"
Si      -0.00689267      -0.00636256      -0.00768323       0.76664316       0.06130986      -0.66519447       0.01194329       0.00899578       0.01620232       0.01194329       0.00899578       0.01620232
Si       1.34768239       1.33927629       1.34100202       0.03850397      -0.43524808      -1.67945577      -0.03131347      -0.03048943      -0.00317917      -0.03131347      -0.03048943      -0.00317917
Si      -0.01560841       2.68367157       2.68576792      -0.19184780      -0.51246954       2.65016417       0.10711345      -0.02094292      -0.04025499       0.10711345      -0.02094292      -0.04025499
Si       1.33710657       4.04982095       4.03378431       2.75847958       0.41753935      -0.75125212      -0.14812641       0.00402532       0.00096571      -0.14812641       0.00402532       0.00096571
Si       2.68793099      -0.02230688       2.68756118       1.27910874       0.45663138       0.95378758      -0.02767433       0.11155966      -0.01550735      -0.02767433       0.11155966      -0.01550735
Si       4.04700646       1.32348207       4.04816714      -1.49288451      -1.50872941       0.21054146      -0.01857905      -0.13971530      -0.04392730      -0.01857905      -0.13971530      -0.04392730
Si       2.68872153       2.68925370      -0.01920212      -0.37088834       0.72484078      -2.04715477      -0.03743886      -0.03107950       0.11100687      -0.03743886      -0.03107950       0.11100687
Si       4.03642740       4.05504769       1.33561461      -2.67459104      -2.82665950       1.01751101      -0.00001003      -0.01016820      -0.11519751      -0.00001003      -0.01016820      -0.11519751
Si       5.38987667      -0.01599798      -0.00969482       0.87545360      -2.11464431       0.44522803      -0.01036437      -0.02591672      -0.06287865      -0.01036437      -0.02591672      -0.06287865
Si       6.78266010       1.30556672       1.30785710      -0.10790306       0.25037346       0.01259911       0.18536370      -0.20293282      -0.13463866       0.18536370      -0.20293282      -0.13463866
Si       5.43432356       2.65044762       2.65486220       0.57672596      -0.17916169       0.83323300       0.00274851      -0.01563925       0.00703248       0.00274851      -0.01563925       0.00703248
Si       6.75717534       4.03887287       4.05277500       0.53728298       1.00635101      -2.10319419       0.13149188       0.03968704      -0.05822803       0.13149188       0.03968704      -0.05822803
Si       8.10173564      -0.01497779       2.70442940      -1.84277147      -0.91340174       0.27937633       0.02179010      -0.00712221      -0.01078526       0.02179010      -0.00712221      -0.01078526
Si       9.44764919       1.34035147       4.04892718       0.43664692      -2.11753178       0.08184684      -0.00047977      -0.03046629      -0.02628953      -0.00047977      -0.03046629      -0.02628953
Si       8.10496238       2.69387323      -0.01326680      -0.07332632      -0.64433097       1.91273413       0.02614529       0.05619121      -0.04525965       0.02614529       0.05619121      -0.04525965
Si       9.44345931       4.04487555       1.34262931       0.83167824       0.65993056       2.54568487      -0.01166458      -0.00838077       0.03085298      -0.01166458      -0.00838077       0.03085298
Si      -0.02552478       5.38921718      -0.02676192      -0.10115672       1.11060064      -2.86629582      -0.02520427      -0.01655739      -0.00666867      -0.02520427      -0.01655739      -0.00666867
Si       1.27987301       6.80795042       1.27807243      -1.30422847      -1.98720175      -0.82336485      -0.13253524       0.12149955      -0.14129164      -0.13253524       0.12149955      -0.14129164
Si      -0.02573119       8.10932228       2.69701718       0.79057035      -1.57949390      -0.02069078      -0.03623379       0.04589959       0.01554283      -0.03623379       0.04589959       0.01554283
Si       1.33910325       9.44106967       4.04315069       0.38160022       0.77233799       0.72327732       0.02703309       0.02288128      -0.00703840       0.02703309       0.02288128      -0.00703840
Si       2.62048013       5.46835754       2.62265709      -2.22249924      -2.23883242      -0.17284762       0.04653671      -0.06877033       0.04273688       0.04653671      -0.06877033       0.04273688
Si       4.03685197       6.74859163       4.03990427       0.54691087      -2.55493355       1.34993587       0.03405838       0.11355895      -0.00813446       0.03405838       0.11355895      -0.00813446
Si       2.69557823       8.11530964      -0.02823902       0.07151607      -0.18172130      -0.41782542       0.02489214       0.02406758      -0.03183694       0.02489214       0.02406758      -0.03183694
Si       4.04399588       9.44091728       1.34143550       0.48900548      -1.08498098      -2.02552813      -0.01847621       0.01136402       0.04126775      -0.01847621       0.01136402       0.04126775
Si       5.40471804       5.40149950      -0.01246829       2.96839204       0.55014656      -1.02468942       0.01259532       0.04232859       0.08924094       0.01259532       0.04232859       0.08924094
Si       6.74999677       6.74370926       1.34721688       0.41381006       0.17031036       0.58068500       0.02940340      -0.00844582       0.01230222       0.02940340      -0.00844582       0.01230222
Si       5.40042814       8.10131990       2.68943026       1.07110743       1.11266935       2.79353101       0.02696650      -0.10197921      -0.04132406       0.02696650      -0.10197921      -0.04132406
Si       6.74703225       9.43885841       4.04714993       1.04892850      -0.80652890       3.52649508       0.01398706       0.00223095       0.01471134       0.01398706       0.00223095       0.01471134
Si       8.10617812       5.39659933       2.69505001      -0.78812609       1.90195007       1.75071847      -0.11632983       0.02796666      -0.06176330      -0.11632983       0.02796666      -0.06176330
Si       9.44805964       6.74092046       4.04538147      -0.72695493       1.17676958       0.72541047      -0.01751050      -0.01592181      -0.00159666      -0.01751050      -0.01592181      -0.00159666
Si       8.09473380       8.09444228      -0.00385138      -0.18053041      -0.64552625       0.40064018      -0.01660753       0.00660028      -0.01791211      -0.01660753       0.00660028      -0.01791211
Si       9.43776055       9.45061109       1.33815393       1.43885590       1.93789408       0.34009058       0.00214301       0.01239555       0.00196612       0.00214301       0.01239555       0.00196612
Si      -0.01402698      -0.01924649       5.39509137      -0.62130727       0.02929198      -0.45967141      -0.04284101      -0.03563986      -0.04295208      -0.04284101      -0.03563986      -0.04295208
Si       1.30698222       1.30466632       6.78037226       0.12656266      -0.42056977      -0.59015309      -0.15474443      -0.17095215       0.18282962      -0.15474443      -0.17095215       0.18282962
Si      -0.01407222       2.69400932       8.10244689      -1.11677822      -2.79172279       1.19907581      -0.04442635       0.03741367       0.02783348      -0.04442635       0.03741367       0.02783348
Si       1.33987717       4.04383358       9.44128709      -1.68909995       4.16815508       0.78995128       0.03149344       0.01374975      -0.01602183       0.03149344       0.01374975      -0.01602183
Si       2.70077462      -0.01104211       8.10083473      -0.46785931      -0.23658003      -0.16151268       0.00384971      -0.03679789       0.02125634       0.00384971      -0.03679789       0.02125634
Si       4.04709388       1.34111535       9.44507172       0.81113461       1.15555955      -0.66603844      -0.00255311      -0.01986229       0.00778710      -0.00255311      -0.01986229       0.00778710
Si       2.65538446       2.65111440       5.43242600       0.63762926      -1.02276661      -2.24629498       0.00939944      -0.00719446       0.00012753       0.00939944      -0.00719446       0.00012753
Si       4.04749573       4.03597694       6.76014880      -0.47796666       0.89535166      -3.22438799      -0.05088779       0.06822011       0.14252654      -0.05088779       0.06822011       0.14252654
Si       5.40436234      -0.02365808       5.40834541      -1.22245600       1.92578063       1.95643565       0.02070510       0.08762397       0.00652803       0.02070510       0.08762397       0.00652803
Si       6.74998578       1.33682931       6.75027758      -1.38401874      -1.97349628      -0.14274772       0.03140114      -0.06224076       0.05436572       0.03140114      -0.06224076       0.05436572
Si       5.40614741       2.68239857       8.10775183       2.74933533       1.69012270      -0.39145221       0.01942880      -0.03457028      -0.08907613       0.01942880      -0.03457028      -0.08907613
Si       6.74496520       4.04134072       9.44716617      -1.79329280      -1.33783149      -0.65727499       0.02719276       0.00471026       0.01005353       0.02719276       0.00471026       0.01005353
Si       8.09978549      -0.00834277       8.10139668      -0.56265788       1.05178990      -0.44181063      -0.03185597      -0.01295013      -0.01943446      -0.03185597      -0.01295013      -0.01943446
Si       9.44630832       1.34020047       9.44515269      -2.62523239       0.22813599      -0.57219143       0.00217772      -0.03236171      -0.00107241       0.00217772      -0.03236171      -0.00107241
Si       8.10707225       2.68041849       5.40673949      -0.92355544       2.09216573      -0.10084510      -0.08953045      -0.01918583       0.00845636      -0.08953045      -0.01918583       0.00845636
Si       9.44218612       4.04064223       6.74787821       1.65961397       1.71069923       0.75066804       0.01578349       0.01105703       0.02675670       0.01578349       0.01105703       0.02675670
Si      -0.01595354       5.39418330       5.40228383       1.28372491      -1.13383419      -0.59739079       0.10754283       0.03415351       0.02695159       0.10754283       0.03415351       0.02695159
Si       1.34084815       6.74110074       6.74644246       2.31647716       1.68833745       0.86104232       0.01423157      -0.00569165       0.04234376       0.01423157      -0.00569165       0.04234376
Si      -0.00598506       8.09436223       8.09285348      -1.34562522      -1.02953152      -1.95886986      -0.01592901      -0.02078609      -0.00912690      -0.01592901      -0.02078609      -0.00912690
Si       1.33468976       9.45274090       9.43240900       1.18163656       3.32137380      -0.39735930       0.00969717       0.00722146       0.02345335       0.00969717       0.00722146       0.02345335
Si       2.69026639       5.39960718       8.10691269      -0.19333020       1.06175356      -1.03162100      -0.02655950       0.02937974      -0.10805627      -0.02655950       0.02937974      -0.10805627
Si       4.04698979       6.74717321       9.44666359      -0.32307023       0.45271214       2.24567866      -0.01404774      -0.04073091      -0.02764373      -0.01404774      -0.04073091      -0.02764373
Si       2.68490142       8.09896979       5.39911477      -0.38140553      -0.93156801      -1.00591618      -0.04496423      -0.07299131       0.04483104      -0.04496423      -0.07299131       0.04483104
Si       4.04071737       9.43908329       6.74702466       2.10804835      -0.94819262      -0.34474215       0.01374769       0.01035666       0.01482807       0.01374769       0.01035666       0.01482807
Si       5.43996740       5.43344900       5.44579698      -1.87112765       1.51512465      -0.40128202      -0.01438764       0.00378621      -0.00439530      -0.01438764       0.00378621      -0.00439530
Si       6.78549208       6.78418977       6.78855670       1.11318735       2.57698851       0.10138226       0.17781699       0.13428796       0.16639821       0.17781699       0.13428796       0.16639821
Si       5.39308503       8.10425257       8.10541655       0.22371407      -0.34043948       1.01378927      -0.04239312       0.05232504       0.04789091      -0.04239312       0.05232504       0.04789091
Si       6.74815937       9.44564789       9.44852088      -1.32224611      -1.02141829      -0.08326370       0.03357578       0.00641362      -0.01287429       0.03357578       0.00641362      -0.01287429
Si       8.10098363       5.38617437       8.10521476      -1.74259811      -0.59440375      -2.19652929       0.03233420       0.00354067       0.02356133       0.03233420       0.00354067       0.02356133
Si       9.43821644       6.75144875       9.43864547       1.00087722      -1.88354729      -0.19565065      -0.00296474       0.01107554      -0.01011935      -0.00296474       0.01107554      -0.01011935
Si       8.10879328       8.09729202       5.39331338      -0.56787432      -0.60659066       1.48339685       0.00834297       0.06845897      -0.04312872       0.00834297       0.06845897      -0.04312872
Si       9.44370239       9.44214642       6.75116742       1.31052248       2.43603858      -1.62009624      -0.00714458       0.01714720       0.02584987      -0.00714458       0.01714720       0.02584987
Si       4.02464200       4.07926669       4.01449416      -1.13447354      -1.70514733       0.54968454      -0.02915503       0.05430864      -0.03084373      -0.02915503       0.05430864      -0.03084373
65
Lattice="10.8 0.0 0.0 0.0 10.8 0.0 0.0 0.0 10.8" Properties=species:S:1:pos:R:3:momenta:R:3:ref_forces:R:3:dft_forces:R:3 image_index=1 dft_energy_ry=-3036.46441456 dft_energy_ev=-41313.20265725627 dft_scf_converged=T dft_max_force_ev_per_ang=0.2971225145075102 ref_energy_ev=-41313.20265725627 pbc="T T T"
Si      -0.00901956      -0.00892963      -0.00934901       0.76664316       0.06130986      -0.66519447       0.00408523       0.00393225       0.00429297       0.00408523       0.00393225       0.00429297
Si       1.33894970       1.33961274       1.34030203       0.03850397      -0.43524808      -1.67945577      -0.03604224      -0.03321454      -0.02900153      -0.03604224      -0.03321454      -0.02900153
Si      -0.02133697       2.68429769       2.68421508      -0.19184780      -0.51246954       2.65016417       0.09880313      -0.02407350      -0.02353151       0.09880313      -0.02407350      -0.02353151
Si       1.32934097       4.04249998       4.04001107       2.75847958       0.41753935      -0.75125212      -0.14230697       0.01423209       0.01518339      -0.14230697       0.01423209       0.01518339
Si       2.68418845      -0.02007940       2.68394198       1.27910874       0.45663138       0.95378758      -0.02567427       0.09958757      -0.02240022      -0.02567427       0.09958757      -0.02240022
Si       4.04379120       1.32911045       4.04002618      -1.49288451      -1.50872941       0.21054146       0.01431950      -0.13615715       0.01637870       0.01431950      -0.13615715       0.01637870
Si       2.68377547       2.68365216      -0.01929979      -0.37088834       0.72484078      -2.04715477      -0.02543027      -0.02290262       0.09832902      -0.02543027      -0.02290262       0.09832902
Si       4.04209902       4.04088311       1.33009840      -2.67459104      -2.82665950       1.01751101       0.02027958       0.02144454      -0.13242725       0.02027958       0.02144454      -0.13242725
Si       5.38916018      -0.01609191      -0.01579838       0.87545360      -2.11464431       0.44522803      -0.01699911      -0.03318369      -0.03429929      -0.01699911      -0.03318369      -0.03429929
Si       6.78744911       1.30029546       1.30013916      -0.10790306       0.25037346       0.01259911       0.15241758      -0.17264393      -0.16778815       0.15241758      -0.17264393      -0.16778815
Si       5.44130436       2.64531534       2.64541591       0.57672596      -0.17916169       0.83323300      -0.02096169       0.00852758       0.01128252      -0.02096169       0.00852758       0.01128252
Si       6.74903600       4.04907084       4.05015433       0.53728298       1.00635101      -2.10319419       0.13109979       0.00010979      -0.01109765       0.13109979       0.00010979      -0.01109765
Si       8.10335071      -0.01843157       2.69612590      -1.84277147      -0.91340174       0.27937633       0.04109292      -0.03550977       0.02387192       0.04109292      -0.03550977       0.02387192
Si       9.43969688       1.34182820       4.04313373       0.43664692      -2.11753178       0.08184684       0.01168309      -0.00250940      -0.00106932       0.01168309      -0.00250940      -0.00106932
Si       8.10395501       2.69560653      -0.01871225      -0.07332632      -0.64433097       1.91273413       0.04182568       0.02709223      -0.03740981       0.04182568       0.02709223      -0.03740981
Si       9.43953213       4.04300334       1.34175659       0.83167824       0.65993056       2.54568487       0.01064205       0.00244486       0.00276856       0.01064205       0.00244486       0.00276856
Si      -0.01777403       5.38802531      -0.01460187      -0.10115672       1.11060064      -2.86629582      -0.03356318      -0.01136351      -0.03639191      -0.03356318      -0.01136351      -0.03639191
Si       1.30037830       6.78569877       1.30038881      -1.30422847      -1.98720175      -0.82336485      -0.17594832       0.15660231      -0.16633419      -0.17594832       0.15660231      -0.16633419
Si      -0.01817626       8.10241369       2.69601328       0.79057035      -1.57949390      -0.02069078      -0.03590597       0.04244660       0.02337004      -0.03590597       0.04244660       0.02337004
Si       1.33857459       9.44326817       4.04224264       0.38160022       0.77233799       0.72327732      -0.00356921       0.00706668       0.00208491      -0.00356921       0.00706668       0.00208491
Si       2.64616570       5.43972789       2.64582322      -2.22249924      -2.23883242      -0.17284762       0.00446549      -0.01472471       0.01049164       0.00446549      -0.01472471       0.01049164
Si       4.04329051       6.75577197       4.04828405       0.54691087      -2.55493355       1.34993587       0.00857900       0.12298204      -0.01236007       0.00857900       0.12298204      -0.01236007
Si       2.69509323       8.10393389      -0.01773992       0.07151607      -0.18172130      -0.41782542       0.02856213       0.04161099      -0.03927489       0.02856213       0.04161099      -0.03927489
Si       4.04282442       9.44196313       1.34009470       0.48900548      -1.08498098      -2.02552813       0.00383403       0.00606112       0.00493395       0.00383403       0.00606112       0.00493395
Si       5.39932067       5.39904748      -0.01966024       2.96839204       0.55014656      -1.02468942       0.02667854       0.02843255       0.10566078       0.02667854       0.02843255       0.10566078
Si       6.74258853       6.74357199       1.34095020       0.41381006       0.17031036       0.58068500       0.01086394       0.01358520      -0.02455532       0.01086394       0.01358520      -0.02455532
Si       5.39940509       8.10327088       2.68635137       1.07110743       1.11266935       2.79353101       0.02712308      -0.09932892      -0.02715162       0.02712308      -0.09932892      -0.02715162
Si       6.74616865       9.44163018       4.04266643       1.04892850      -0.80652890       3.52649508      -0.02089561       0.01037235       0.00521574      -0.02089561       0.01037235       0.00521574
Si       8.10081091       5.40038146       2.68763500      -0.78812609       1.90195007       1.75071847      -0.09701930       0.02840092      -0.02892877      -0.09701930       0.02840092      -0.02892877
Si       9.44193236       6.74544734       4.04292162      -0.72695493       1.17676958       0.72541047       0.01164813      -0.01662475       0.00573845       0.01164813      -0.01662475       0.00573845
Si       8.09332791       8.09307531      -0.00603828      -0.18053041      -0.64552625       0.40064018      -0.00094077       0.00128478       0.00047823      -0.00094077       0.00128478       0.00047823
Si       9.44303753       9.44240266       1.33745643       1.43885590       1.93789408       0.34009058       0.00741995       0.00549882      -0.02106736       0.00741995       0.00549882      -0.02106736
Si      -0.01612306      -0.01317852       5.38789385      -0.62130727       0.02929198      -0.45967141      -0.03605124      -0.03790501      -0.01135502      -0.03605124      -0.03790501      -0.01135502
Si       1.30387487       1.30414349       6.78189684       0.12656266      -0.42056977      -0.59015309      -0.17782522      -0.17305942       0.16343321      -0.17782522      -0.17305942       0.16343321
Si      -0.01645257       2.69609719       8.10100666      -1.11677822      -2.79172279       1.19907581      -0.03849970       0.02348806       0.04373910      -0.03849970       0.02348806       0.04373910
Si       1.33860700       4.04211410       9.44364284      -1.68909995       4.16815508       0.78995128      -0.00370007       0.00681599       0.00074202      -0.00370007       0.00681599       0.00074202
Si       2.69564641      -0.01565113       8.10184502      -0.46785931      -0.23658003      -0.16151268       0.02555882      -0.04002257       0.04235456       0.02555882      -0.04002257       0.04235456
Si       4.04276200       1.34012536       9.44260081       0.81113461       1.15555955      -0.66603844       0.00512241      -0.00017586       0.00075359       0.00512241      -0.00017586       0.00075359
Si       2.65064756       2.65014933       5.43536667       0.63762926      -1.02276661      -2.24629498      -0.00053967       0.00290072      -0.00696049      -0.00053967       0.00290072      -0.00696049
Si       4.04501562       4.04889452       6.75678933      -0.47796666       0.89535166      -3.22438799       0.00256725      -0.00714073       0.12637744       0.00256725      -0.00714073       0.12637744
Si       5.39972182      -0.02064055       5.39935610      -1.22245600       1.92578063       1.95643565       0.02579022       0.10539210       0.02819163       0.02579022       0.10539210       0.02819163
Si       6.74258621       1.33993312       6.74446069      -1.38401874      -1.97349628      -0.14274772       0.01221763      -0.02957052       0.01895109       0.01221763      -0.02957052       0.01895109
Si       5.39990938       2.68587225       8.10426347       2.74933533       1.69012270      -0.39145221       0.02599591      -0.02668985      -0.09938163       0.02599591      -0.02668985      -0.09938163
Si       6.74615046       4.04253315       9.44251746      -1.79329280      -1.33783149      -0.65727499      -0.02078866       0.00764132       0.00600044      -0.02078866       0.00764132       0.00600044
Si       8.09407939      -0.00653209       8.09346454      -0.56265788       1.05178990      -0.44181063      -0.00206897       0.00139405       0.00048182      -0.00206897       0.00139405       0.00048182
Si       9.44416549       1.33805520       9.44129791      -2.62523239       0.22813599      -0.57219143       0.00705177      -0.02394854       0.00270094       0.00705177      -0.02394854       0.00270094
Si       8.10089961       2.68664312       5.40136624      -0.92355544       2.09216573      -0.10084510      -0.09542650      -0.02801706       0.02754577      -0.09542650      -0.02801706       0.02754577
Si       9.44206355       4.04272058       6.74548390       1.65961397       1.71069923       0.75066804       0.01281926       0.00945806      -0.01160647       0.01281926       0.00945806      -0.01160647
Si      -0.01987802       5.39918134       5.39920902       1.28372491      -1.13383419      -0.59739079       0.10132590       0.02710457       0.02755297       0.10132590       0.02710457       0.02755297
Si       1.33817727       6.74412813       6.74494802       2.31647716       1.68833745       0.86104232      -0.03262447       0.01509443       0.01913081      -0.03262447       0.01509443       0.01913081
Si      -0.00815054       8.09477808       8.09440004      -1.34562522      -1.02953152      -1.95886986       0.00204017      -0.00231605      -0.00202989       0.00204017      -0.00231605      -0.00202989
Si       1.33791437       9.44401363       9.44172223       1.18163656       3.32137380      -0.39735930      -0.02525543       0.00513526       0.00284595      -0.02525543       0.00513526       0.00284595
Si       2.68282475       5.40185524       8.10648349      -0.19333020       1.06175356      -1.03162100      -0.02427996       0.02549943      -0.10202061      -0.02427996       0.02549943      -0.10202061
Si       4.04220405       6.74645882       9.44366621      -0.32307023       0.45271214       2.24567866       0.00921946      -0.01750819       0.00571685       0.00921946      -0.01750819       0.00571685
Si       2.68226119       8.10568942       5.40224286      -0.38140553      -0.93156801      -1.00591618      -0.02382719      -0.10044427       0.02585810      -0.02382719      -0.10044427       0.02585810
Si       4.04209787       9.44306359       6.74636250       2.10804835      -0.94819262      -0.34474215       0.01051067       0.01099764      -0.01243000       0.01051067       0.01099764      -0.01243000
Si       5.44822201       5.45657869       5.45688190      -1.87112765       1.51512465      -0.40128202      -0.02565987      -0.03530536      -0.03275251      -0.02565987      -0.03530536      -0.03275251
Si       6.79614861       6.79799648       6.79790018       1.11318735       2.57698851       0.10138226       0.14858406       0.14824776       0.15293745       0.14858406       0.14824776       0.15293745
Si       5.38935253       8.10902135       8.10924855       0.22371407      -0.34043948       1.01378927      -0.02253212       0.03236402       0.03132452      -0.02253212       0.03236402       0.03132452
Si       6.75074770       9.44644565       9.44660980      -1.32224611      -1.02141829      -0.08326370       0.00929042       0.00482648       0.00142002       0.00929042       0.00482648       0.00142002
Si       8.10774485       5.39010162       8.10778554      -1.74259811      -0.59440375      -2.19652929       0.03412934      -0.02211123       0.03447798       0.03412934      -0.02211123       0.03447798
Si       9.44569734       6.74960719       9.44663628       1.00087722      -1.88354729      -0.19565065       0.00541551       0.01459538       0.00143108       0.00541551       0.01459538       0.00143108
Si       8.10832189       8.10796797       5.39060873      -0.56787432      -0.60659066       1.48339685       0.03492587       0.03665468      -0.02516390       0.03492587       0.03665468      -0.02516390
Si       9.44684943       9.44763199       6.74894606       1.31052248       2.43603858      -1.62009624       0.00494963       0.00430043       0.01754649       0.00494963       0.00430043       0.01754649
Si       4.06056160       4.05862713       4.05074424      -1.13447354      -1.70514733       0.54968454       0.03139857       0.02282548       0.00719420       0.03139857       0.02282548       0.00719420
65
Lattice="10.8 0.0 0.0 0.0 10.8 0.0 0.0 0.0 10.8" Properties=species:S:1:pos:R:3:momenta:R:3:ref_forces:R:3:dft_forces:R:3 image_index=2 dft_energy_ry=-3036.46419148 dft_energy_ev=-41313.19962209827 dft_scf_converged=T dft_max_force_ev_per_ang=0.3148583896664593 ref_energy_ev=-41313.19962209827 pbc="T T T"
Si      -0.01099138      -0.01195363      -0.01235475       0.76664316       0.06130986      -0.66519447       0.00633546       0.00663422       0.00684376       0.00633546       0.00663422       0.00684376
Si       1.33494417       1.33736902       1.33777174       0.03850397      -0.43524808      -1.67945577      -0.05780689      -0.03982562      -0.03691693      -0.05780689      -0.03982562      -0.03691693
Si      -0.02566522       2.68211313       2.68195223      -0.19184780      -0.51246954       2.65016417       0.09565919      -0.02041456      -0.01977924       0.09565919      -0.02041456      -0.01977924
Si       1.32625198       4.03893274       4.03700440       2.75847958       0.41753935      -0.75125212      -0.15982596       0.02853231       0.02880330      -0.15982596       0.02853231       0.02880330
Si       2.68155852      -0.02211575       2.68013832       1.27910874       0.45663138       0.95378758      -0.02524155       0.09780271      -0.01585291      -0.02524155       0.09780271      -0.01585291
Si       4.04485892       1.32634238       4.03279152      -1.49288451      -1.50872941       0.21054146       0.04113380      -0.13101494       0.04680848       0.04113380      -0.13101494       0.04680848
Si       2.68123944       2.68001096      -0.02168474      -0.37088834       0.72484078      -2.04715477      -0.02507751      -0.01654659       0.09694988      -0.02507751      -0.01654659       0.09694988
Si       4.04358466       4.03353329       1.32691781      -2.67459104      -2.82665950       1.01751101       0.04552473       0.05102637      -0.12739251       0.04552473       0.05102637      -0.12739251
Si       5.38845136      -0.01597305      -0.01591221       0.87545360      -2.11464431       0.44522803      -0.01197954      -0.02548143      -0.02612652      -0.01197954      -0.02548143      -0.02612652
Si       6.79073694       1.29808424       1.29782935      -0.10790306       0.25037346       0.01259911       0.12888453      -0.17513662      -0.17165817       0.12888453      -0.17513662      -0.17165817