3
Lattice="2.906136986830882 -2.9061369868311258 1.3365191955323497e-07 -2.9061371204828084 -8.547390153472446e-16 -2.906137120482803 2.9061369868308846 2.906136986831117 1.3365191856217445e-07" Properties=species:S:1:pos:R:3:forces:R:3:energies:R:1 oqmd_id=695020 name=OQMD_695020 oqmd_composition=Al2Cu oqmd_formation_energy=-0.174995133333 oqmd_volume_per_atom=15.9302 potential_energy=-12.1525939489617 formation_energy=-0.2143296855644786 oqmd_volume_peratom=15.9302 formula=Al2Cu volume_peratom=16.36277604904275 lattice_a=4.109898340890489 lattice_b=4.109898340890484 lattice_c=4.109898529902678 angle_alpha=59.99999847867939 angle_beta=59.99999847867942 angle_gamma=59.99999695735335 symmetry_number=225 symmetry_symbol=Fm-3m energy=-12.1525939489617 stress="-5.139480463951209e-08 -3.4506610300326236e-16 1.7351128824049322e-08 -3.4506610300326236e-16 -5.1394792692117806e-08 1.035263508438734e-15 1.7351128824049322e-08 1.035263508438734e-15 -5.1394804580028245e-08" free_energy=-12.1525939489617 pbc="T T T"
Al       1.45306869      -1.45306856      -1.45306869       0.00000014       0.00000005      -0.00000014      -4.11654061
Al       1.45306869       1.45306856      -1.45306869       0.00000014      -0.00000005      -0.00000014      -4.11654061
Cu       0.00000030       0.00000000      -0.00000030      -0.00000029       0.00000000       0.00000029      -3.91951273
