2
Lattice="2.774219081492214 -6.151715649495451e-10 3.540213289635383e-13 -1.3871095412788976 2.4025439573916447 -3.7682052508850456e-11 -1.6546485587339174e-12 1.665116049153977e-10 4.469599734745502" Properties=species:S:1:pos:R:3:forces:R:3:energies:R:1 oqmd_id=122929 name=OQMD_122929 oqmd_composition=Zn oqmd_formation_energy=0.0 oqmd_volume_per_atom=15.1766 potential_energy=-2.5348691322163233 formation_energy=0.0 oqmd_volume_peratom=15.1766 formula=Zn2 volume_peratom=14.895350732208524 lattice_a=2.774218870383869 lattice_b=2.774218871449414 lattice_c=4.469599734745502 angle_alpha=90.0000000010809 angle_beta=89.99999999893299 angle_gamma=60.000005021798415 symmetry_number=194 symmetry_symbol=P6_3/mmc energy=-2.5348691322163233 stress="2.2863912649406665e-08 -3.478773083871967e-11 -2.4445993992135238e-14 -3.478773083871967e-11 6.933072393124294e-09 2.1839312703169742e-12 -2.4445993992135238e-14 2.1839312703169742e-12 3.9658974126024086e-08" free_energy=-2.5348691322163233 pbc="T T T"
Zn       1.38710849       0.80085168       3.35219843       0.00000000      -0.00000002       0.00000028      -1.26743457
Zn      -0.00000105       1.60169963       1.11739863      -0.00000000       0.00000002      -0.00000028      -1.26743457
