8
Lattice="-3.998371 0.0 0.0 -1.999186 4.632574 0.0 0.0 0.0 -7.129003" Properties=species:S:1:pos:R:3:forces:R:3:energies:R:1 oqmd_id=10434 name=OQMD_10434 oqmd_composition=MgAl2Cu oqmd_formation_energy=-0.182843854792 oqmd_volume_per_atom=16.5061 formula=Al2CuMg potential_energy=-27.820076647393115 formation_energy=-0.1977916159654054 volume_peratom=16.506092127149216 lattice_a=3.998371 lattice_b=5.045541252241627 lattice_c=7.129003 angle_alpha=90.0 angle_beta=90.0 angle_gamma=66.65740085176857 oqmd_volume_peratom=16.5061 energy=-27.820076647393115 stress="0.0018714664643056135 1.80630458701257e-07 -8.125714271924246e-13 1.80630458701257e-07 0.0005450667100382564 6.908120363531515e-08 -8.125714271924246e-13 6.908120363531515e-08 -0.005767760557722767" free_energy=-27.820076647393115 pbc="T T T"
Al      -1.99919000       1.33512000      -3.17442000       0.00002789      -0.12263830      -0.06062012      -3.94098077
Al      -3.99837000       3.29745000      -3.95459000      -0.00002789       0.12263709       0.06066454      -3.94098079
Al      -1.99919000       1.33512000      -0.39009000       0.00002789      -0.12263520       0.06067463      -3.94098004
Al      -3.99837000       3.29745000      -6.73892000      -0.00002789       0.12263641      -0.06063021      -3.94098002
Cu      -1.99919000       2.59601000      -5.34675000       0.00004007      -0.12302927      -0.00003977      -4.10752685
Cu      -3.99837000       2.03656000      -1.78225000      -0.00004007       0.12302927      -0.00002609      -4.10752685
Mg      -1.99919000       4.03139000      -1.78225000       0.00001197      -0.05532267      -0.00000849      -1.92055067
Mg      -3.99837000       0.60118000      -5.34675000      -0.00001197       0.05532267      -0.00001449      -1.92055067
