3
Lattice="2.880299193 -2.880299193 0.0 -2.880299193 0.0 -2.880299193 2.880299193 2.880299193 0.0" Properties=species:S:1:pos:R:3:forces:R:3:energies:R:1 oqmd_id=695020 name=OQMD_695020 oqmd_composition=Al2Cu oqmd_formation_energy=-0.174995133333 oqmd_volume_per_atom=15.9302 formula=Al2Cu potential_energy=-12.141727823133795 formation_energy=-0.21100069247568007 volume_peratom=15.930211768471011 lattice_a=4.073358182432881 lattice_b=4.073358182432881 lattice_c=4.073358182432881 angle_alpha=120.00000000000001 angle_beta=90.0 angle_gamma=120.00000000000001 oqmd_volume_peratom=15.9302 energy=-12.141727823133795 stress="-0.01717520234689057 -3.3604442121108476e-18 -9.82638454018623e-08 -3.3604442121108476e-18 -0.017175202347074158 4.633433757603252e-18 -9.82638454018623e-08 4.633433757603252e-18 -0.01717520234689056" free_energy=-12.141727823133795 pbc="T T T"
Al       1.44015000      -1.44015000      -1.44015000      -0.00000159       0.00000340       0.00000159      -4.11652255
Al       1.44015000       1.44015000      -1.44015000      -0.00000159      -0.00000340       0.00000159      -4.11652255
Cu       0.00000000       0.00000000       0.00000000       0.00000319      -0.00000000      -0.00000319      -3.90868272
