6
Lattice="-3.03487445986852 3.03487445986852 2.43262032492013 3.03487445986852 -3.03487445986852 2.43262032492013 3.03487445986852 3.03487445986852 -2.43262032492013" Properties=species:S:1:pos:R:3:forces:R:3:energies:R:1 oqmd_id=NOTINOQMD_00001 name=NOTINOQMD_00001 oqmd_composition=Al2Cu oqmd_formation_energy oqmd_volume_per_atom formula=Al2Cu potential_energy=-24.206537424859842 formation_energy=-0.19818098890772204 volume_peratom=14.937039642996957 lattice_a=4.933413384213713 lattice_b=4.933413384213713 lattice_c=4.933413384213713 angle_alpha=104.07184865310414 angle_beta=104.07184865310414 angle_gamma=120.91214313379463 oqmd_volume_peratom energy=-24.206537424859842 stress="0.002691027786558185 1.2078112250721074e-17 -1.6139735047766637e-17 1.2078112250721074e-17 0.0026910277865581688 -4.292730770240539e-18 -1.6139735047766637e-17 -4.292730770240539e-18 1.4805816139387112e-05" free_energy=-24.206537424859842 pbc="T T T"
Al       0.95692861       3.99180307       0.00000000      -0.04482432      -0.04482432      -0.00000000      -3.95776490
Al      -0.95692861      -3.99180307       0.00000000       0.04482432       0.04482432       0.00000000      -3.95776490
Al      -3.99180307       0.95692861       0.00000000       0.04482432      -0.04482432       0.00000000      -3.95776490
Al       3.99180307      -0.95692861       0.00000000      -0.04482432       0.04482432      -0.00000000      -3.95776490
Cu       0.00000000       0.00000000       1.21631016       0.00000000      -0.00000000       0.00000000      -4.18773892
Cu       0.00000000       0.00000000      -1.21631016       0.00000000      -0.00000000      -0.00000000      -4.18773892
