1
Lattice="1.8063858778932613 -1.8063858778932613 3.547798550466811e-18 -1.8063858778932613 4.645515150226091e-19 -1.8063858778932613 1.8063858778932613 1.8063858778932613 4.995077715592765e-18" Properties=species:S:1:pos:R:3:forces:R:3:energies:R:1 oqmd_id=635950 name=OQMD_635950 oqmd_composition=Cu oqmd_formation_energy=0.0 oqmd_volume_per_atom=11.7463 potential_energy=-4.090421630486516 formation_energy=0.0 oqmd_volume_peratom=11.7463 formula=Cu volume_peratom=11.788582404983854 lattice_a=2.55461540739588 lattice_b=2.55461540739588 lattice_c=2.55461540739588 angle_alpha=60.00000000000001 angle_beta=60.00000000000001 angle_gamma=60.00000000000001 symmetry_number=225 symmetry_symbol=Fm-3m energy=-4.090421630486516 stress="-7.60219206717185e-08 9.726128393938725e-18 -6.983869267624256e-18 9.726128393938725e-18 -7.602192065055093e-08 -6.1532183788932256e-18 -6.983869267624256e-18 -6.1532183788932256e-18 -7.60219207925355e-08" free_energy=-4.090421630486516 pbc="T T T"
Cu       0.00000000       0.00000000       0.00000000       0.00000000       0.00000000       0.00000000      -4.09042163
