8
Lattice="3.980782619413878 -3.006713046149789e-17 3.2761695782447036e-16 -3.0551143524854484e-17 3.980782619413878 -1.4656243361749113e-17 6.422499569328785e-16 -2.9259094259641945e-17 7.585667332261134" Properties=species:S:1:pos:R:3:forces:R:3:energies:R:1 oqmd_id=NOTINOQMD_00002 name=NOTINOQMD_00002 oqmd_composition=Al6Cu2 oqmd_formation_energy oqmd_volume_per_atom potential_energy=-31.270016959915363 formation_energy=-0.10395298919963603 oqmd_volume_peratom formula=Al3Cu volume_peratom=15.025908189083657 lattice_a=2.814838384617101 lattice_b=2.814838384617101 lattice_c=7.585667332261134 angle_alpha=90.0 angle_beta=90.0 angle_gamma=90.0 symmetry_number=123 symmetry_symbol=P4/mmm energy=-31.270016959915363 stress="-2.299123115360608e-09 -8.91311034827267e-18 -1.347724960643664e-15 -8.91311034827267e-18 -2.299123080682612e-09 3.526393270201592e-17 -1.347724960643664e-15 3.526393270201592e-17 -3.000778923282683e-08" free_energy=-31.270016959915363 pbc="T T T"
Al       0.00000000       1.99039131       5.87355139      -0.00000000       0.00000000       0.00000010      -3.88726660
Al      -1.99039131      -0.00000000       5.87355139      -0.00000000      -0.00000000       0.00000010      -3.88726660
Al      -0.00000000       1.99039131      -5.87355139       0.00000000       0.00000000      -0.00000010      -3.88726660
Al       1.99039131      -0.00000000      -5.87355139       0.00000000      -0.00000000      -0.00000010      -3.88726660
Al      -0.00000000      -0.00000000       3.79283367      -0.00000000      -0.00000000       0.00000000      -3.67903571
Al       1.99039131       1.99039131       3.79283367       0.00000000       0.00000000       0.00000000      -3.67903571
Cu       0.00000000      -0.00000000      -0.00000000       0.00000000      -0.00000000       0.00000000      -4.18143958
Cu       1.99039131       1.99039131      -0.00000000       0.00000000       0.00000000      -0.00000000      -4.18143958
