229
Lattice="12.930895119882024 0.0 0.0 0.0 12.930895119882024 0.0 0.0 0.0 12.930895119882024" Properties=species:S:1:pos:R:3:initial_charges:R:1:molID:I:1:forces:R:3 Time=130000 virial="56.42820133762223 20.84027009880263 27.048619388985326 20.84027009880263 99.1275143424339 14.011469457537935 27.048619388985326 14.011469457537935 105.69591946750035" energy=-43448.240825386885 pbc="T T T"
C        9.49210460       7.09758730       7.24477968      -0.21000000        0       0.93223174      -0.50316784      -4.25676255
C        9.52330685       8.52264953       6.85033565      -0.17000000        0      -2.11282181       2.94147919      -1.73786178
O        9.87536340       9.23865905       8.02884450      -0.49000000        0       0.15200447      -0.18453890       1.69964935
C        9.74721823       8.30747943       9.02010106       0.91000000        0      -0.23296326       1.68327709       2.38263311
O        9.56071592       8.47837414      10.21289855      -0.60000000        0       0.30885078       1.18288111      -0.60870155
O        9.81304941       7.10961303       8.54415360      -0.46000000        0       1.10662494      -2.51601891       2.34602649
H       10.27107465       6.70045365       6.55576986       0.29000000        0      -0.56566950      -0.75334822       0.85104550
H        8.55914051       6.57247658       7.15611253       0.24000000        0      -0.43773658      -0.13976985      -0.67017199
H        8.47454660       8.97740325       6.60310987       0.19000000        0       2.02835336      -0.88209692      -0.13104839
H       10.25463948       8.76651328       6.04593053       0.25000000        0      -0.53507168      -0.20857911       0.99377909
C        5.65349079       0.30191054       8.33186710      -0.24000000        1       0.24804885      -3.17680762       4.33086721
C        6.63160956       1.16844861       7.66763288      -0.27000000        1      -0.18496657      -1.40785222      -0.94610455
O        5.82248466       2.25660930       7.36704129      -0.52000000        1      -1.43221252       2.06366366      -0.17319892
C        4.44301677       1.93310417       7.51444056       0.71000000        1      -1.92153070       0.55234751      -0.15333617
O        3.51773364       2.64629476       7.09674679      -0.51000000        1       3.24239855      -2.78208059       0.13044557
O        4.32352237       0.79024579       8.19041604      -0.39000000        1       0.30042561       0.85486634      -2.71389845
H        5.64372797       0.49172315       9.45368691       0.28000000        1       1.29394920      -1.36250332      -0.93746051
H        5.78816607      -0.80061637       7.98102605       0.26000000        1      -0.65153476       1.55849048       0.93107304
H        6.73297485       0.69859161       6.71791036       0.24000000        1       1.49982922      -0.28917765      -1.01966068
H        7.56522019       1.29342572       8.23509228       0.30000000        1      -0.26650459       0.72668235      -0.26320412
C        0.81118091       9.80713999      10.37732781      -0.27000000        2      -0.06932470       3.18592161      -1.00925666
C        0.75534531      10.77104771      11.52206117      -0.21000000        2      -0.47442619      -1.34770106       2.17478993
O        2.02733160      10.60378658      12.08609388      -0.44000000        2       3.90819071      -0.96239692       1.11615440
C        2.61416148       9.42037692      11.79668752       0.84000000        2      -1.46453833      -0.80592637       0.08383879
O        3.61452139       8.85874935      12.27554442      -0.55000000        2      -4.09535182       1.27083320      -1.07460637
O        1.70730488       8.82188337      10.84732706      -0.49000000        2       0.80101969      -1.76633585       0.17273480
H        1.33534768      10.37374596       9.56229349       0.24000000        2       0.04888833      -0.31224650       0.18353879
H       -0.22784237       9.81430371       9.95711251       0.31000000        2       0.42944321      -2.04265980       0.55948936
H        0.13735197      10.46973199      12.43531856       0.23000000        2      -0.37457093       0.25504295      -1.46050509
H        0.62901046      11.79341600      11.28653784       0.33000000        2      -0.06898967       0.66435621      -0.20244691
C       11.96998737       2.57408864      11.55939266      -0.29000000        3       0.18041093      -3.85372768       0.06353104
C       12.37550024       1.57551319      12.64703611      -0.26000000        3      -0.78027032      -1.25027540       0.77869532
O       11.65890883       2.08425340      13.80446760      -0.48000000        3       0.44538041       0.88600527       0.51989296
C       10.70998802       2.91794700      13.31013241       0.94000000        3      -1.14793240      -0.22388081       3.35525703
O        9.79600649       3.37822221      13.93614291      -0.61000000        3      -0.52397510       0.19323743       1.00557639
O       10.83901249       3.15746597      12.06231396      -0.47000000        3      -0.75207801       1.29666206      -2.82363879
H       11.74709753       1.94412129      10.72481976       0.30000000        3      -0.44612861      -0.09793854      -1.08248973
H       12.63066560       3.26187002      11.22908587       0.27000000        3       2.52969902       2.47176275      -0.66037584
H       13.40642879       1.22212476      12.83865904       0.29000000        3      -0.47574601       0.95649907       0.07313645
H       11.79244618       0.65584207      12.57523085       0.26000000        3       0.19810186      -0.49256546      -1.17385622
C        1.77576103       6.81884892       1.80771328      -0.68000000        4       0.79925660       0.05565261       0.62848906
C        2.28719087       7.29426621       3.14131528      -0.23000000        4      -0.00594744       0.86045717      -2.26743529
O        1.28471029       7.68574906       4.01027143      -0.46000000        4      -3.64323719       0.80156555      -2.19084072
C        1.66517602       8.21614852       5.10710875       0.92000000        4       3.14467608      -0.65245122      -0.00831294
O        2.81137056       7.95486685       5.52994902      -0.64000000        4      -1.72995923       1.20918155       1.38214004
O        0.72758268       9.06449282       5.48581588      -0.45000000        4       0.44895912      -1.77624517      -5.51881210
C        0.77599595       9.50257862       6.67871681      -0.56000000        4       0.21137199      -0.51572003       6.76046745
H        2.71341903       6.43178844       1.34251139       0.21000000        4      -0.73133601      -0.31064323      -0.00854393
H        1.49834161       7.67768018       1.18300880       0.25000000        4      -0.43357063      -0.14250417       0.08591364
H        0.95931725       6.08083102       1.93311710       0.23000000        4       0.84432283       0.99569974       0.09839741
H        2.99829958       8.09592999       2.90030926       0.23000000        4       0.03325042       0.24687207       0.57956686
H        2.70480706       6.58393335       3.73161064       0.29000000        4       2.41729521      -2.72820905       0.84473353
H        0.40988351      10.44450381       6.77867263       0.32000000        4      -0.73782618       3.28769164       0.08958040
H        1.63711598       9.30628763       7.30975743       0.26000000        4       1.27717856       0.45579951      -0.49410106
H        0.10978330       8.91092551       7.25693472       0.29000000        4      -1.58914798      -0.73616592       1.10861305
C        4.69110892       8.55041216       9.10819925      -0.66000000        5       1.45405601      -2.00722307       1.02642168
C        6.29662179       8.75672459       9.03542417      -0.23000000        5      -2.73323219       0.66790803       0.42135293
O        6.74527213       8.11572719       7.83255352      -0.45000000        5       0.24645131      -1.16793930      -1.96343265
C        6.29649248       8.65716963       6.64103618       0.80000000        5      -0.26377078       4.95665152       0.02055775
O        5.94809538       9.91781552       6.64031205      -0.60000000        5       0.75188278      -4.80368910      -0.31700654
O        6.44836585       7.92092325       5.46828158      -0.43000000        5      -0.50428847      -0.29167959       3.79885003
C        5.54506524       8.13225287       4.40651285      -0.48000000        5      -0.52529050       3.98320455      -1.04039154
H        4.34351353       9.07280739       9.98532773       0.24000000        5      -0.12051691       0.42574939       0.32986771
H        4.47147767       7.42257949       9.39671338       0.17000000        5       0.39313434       2.25612112      -1.42816699
H        4.10783504       8.93383906       8.26399283       0.26000000        5       0.36814861      -0.26625856      -0.27870650
H        6.79495263       8.45878384      10.02951260       0.28000000        5      -0.35018870      -0.08646812      -2.26612723
H        6.43998663       9.79501081       8.82355146       0.26000000        5       0.24736609       1.11385295       0.25382691
H        4.58890313       8.68844946       4.57116194       0.26000000        5       0.84389651      -0.17818691       1.09034647
H        5.16822016       7.30472731       3.88532019       0.28000000        5       0.32482283      -2.06643920      -0.30298460
H        6.09068436       8.79281472       3.70911089       0.24000000        5      -0.19537062      -0.42770668      -0.21326073
C       13.96881928       1.43435954       7.58975010      -0.67000000        6      -0.34073868      -1.89587717      -2.35484877
C       13.45502309       0.32055689       8.39164663      -0.23000000        6      -0.83594221      -0.68240996       1.95634300
O       12.01946098       0.49584810       8.72647923      -0.46000000        6       0.58839931       0.45973231       1.47473869
C       11.37025246      -0.14024849       9.75176990       0.90000000        6       3.96231845      -0.55125461      -2.19107992
O       11.74239069      -1.00364436      10.49296881      -0.64000000        6       1.57984367      -1.46427903       1.24172542
O       10.17225675       0.15455006       9.68234392      -0.46000000        6      -3.07293214       3.64868346      -3.18744147
C        9.20634474      -0.64563959      10.19562288      -0.50000000        6      -2.20074520      -0.70239528       3.30821598
H       14.62895441       2.18354974       7.88878998       0.24000000        6       0.14611773       1.32260226       1.43671049
H       13.40388140       1.72845982       6.69486750       0.22000000        6      -0.55894497      -0.45203652       1.69636948
H       14.65268260       0.73455243       7.11313023       0.25000000        6       1.14173553       0.34747938      -0.82397338
H       14.15325264       0.16464909       9.26574928       0.24000000        6      -1.30704302      -0.06293870      -0.46617417
H       13.49419077      -0.58794194       7.78148941       0.23000000        6      -0.34906993      -0.18103275       0.03396818
H        9.23984869      -0.14705014      11.15625907       0.32000000        6      -1.49851034      -0.82376670       1.40310836
H        9.45841961      -1.74695100      10.39486211       0.28000000        6      -0.28707051       1.27757088      -0.89536381
H        8.19545909      -0.37244857       9.74760615       0.24000000        6       1.24161816      -0.69218029       0.28783232
C        6.00265082       5.61493086       7.15708235      -0.60000000        7      -4.83819124       0.03480314       0.04414395
C        5.01383820       4.90314974       8.24912230      -0.22000000        7       4.57039045       0.85346989       1.15578251
O        3.81350200       4.76140127       7.62719797      -0.44000000        7      -2.33213225       1.34101401      -1.35334471
C        2.66695833       5.00472192       8.28400986       0.89000000        7       1.66606672      -0.28436720       2.96839625
O        2.58068339       5.15316860       9.49425112      -0.64000000        7       1.05567399       0.09042643       1.67401884
O        1.61444812       4.96590338       7.62343508      -0.46000000        7      -3.33484014       0.18919580      -5.10317820
C        0.31193198       5.35800691       8.18436438      -0.51000000        7       0.57252519       2.17190710       0.08523975
H        5.84806197       5.03898880       6.21889418      -0.05000000        7       0.39071796       1.31400933       0.62497052
H        7.02717857       5.77861013       7.24652535       0.21000000        7       1.57832784      -0.20878859       1.01502127
H        5.52491890       6.61823902       6.95984740       0.21000000        7       0.35681986      -1.56051774       0.02876259
H        4.88355944       5.31845130       9.26525790       0.19000000        7       0.11828472       0.55786127      -1.09798673
H        5.60871110       3.98137088       8.49403346       0.14000000        7      -1.33290410       0.05585545      -0.19577875
H        0.47299921       6.26188941       8.80406460       0.24000000        7       0.13700440      -0.30014539      -0.04903250
H        0.01591793       4.57707136       8.80551286       0.29000000        7      -0.67142037      -1.51200749       1.17929101
H       -0.52844689       5.60112067       7.48158316       0.31000000        7       1.61913136      -0.58320533      -0.19688065
C       -1.68135257       7.65220632      -0.32521201      -0.73000000        8       2.08931367       2.42746719      -0.90872618
C       -0.74091443       6.52836930      -0.73230245      -0.26000000        8       0.91821207       0.56086052       0.42542654
O       -0.40922404       5.80120041       0.44263747      -0.45000000        8       1.26370240      -3.94571996       1.50477373
C        0.60445469       4.73742739       0.47426644       0.81000000        8       1.22920297       5.39763539      -6.65639703
O        1.56304781       4.68999687      -0.40296548      -0.64000000        8      -3.38245516       0.12855403       2.44845647
O        0.56981282       4.09518862       1.51878536      -0.40000000        8      -3.80091862       0.80816360       1.27481482
C        1.36993782       3.03195870       1.71087380      -0.47000000        8       0.18016850      -2.56445779       2.21088993
H       -2.43479703       7.47097983       0.39095268       0.30000000        8      -0.77127077      -1.03177709       0.49817824
H       -2.13622267       8.04465899      -1.23773235       0.28000000        8      -0.21170529      -0.20107773      -0.04954994
H       -1.19173716       8.59413151       0.10477904       0.19000000        8       0.08964672      -1.19104337      -0.31731529
H        0.24972145       6.75727200      -1.18670704       0.21000000        8      -0.66834725       0.65556616      -0.23028354
H       -1.28940421       5.90609583      -1.40375211       0.28000000        8      -0.45234143      -0.92210970      -0.75637936
H        2.18746780       3.50864322       2.14804150       0.28000000        8       1.78357324      -0.04404939       1.57165967
H        1.86803590       2.59782976       0.88125343       0.25000000        8      -0.49272690      -0.73341612      -1.38303443
H        0.70270363       2.39028889       2.39083199       0.25000000        8       1.61133478       0.32689405      -1.34854339
C       10.91526598      11.53782393       1.51062596      -0.74000000        9      -2.62005886       1.22142509      -0.21195293
C       11.32791671      12.16057584       2.79665520      -0.25000000        9       2.29659469       0.11018603      -0.13564251
O       10.53267959      11.77002401       3.99590521      -0.51000000        9      -0.77172140      -0.73723899      -1.80309738
C       10.79171128      12.12908911       5.22578851       0.85000000        9       0.23231742       1.50994940       2.50752427
O       11.67630088      12.83170222       5.65112444      -0.60000000        9       1.35017666       0.00580808      -0.55968492
O        9.81805367      11.71868836       6.09051626      -0.49000000        9      -1.16104600      -1.00108589      -0.61143283
C        9.97225459      12.13473991       7.50392775      -0.50000000        9      -0.16311501       1.66990862      -3.13279627
H        9.83040267      11.52696197       1.32655467       0.17000000        9      -0.15283425       0.69536993      -0.37374595
H       11.12567751      10.53555025       1.32636071       0.29000000        9       0.96924689      -1.91309658       0.31964936
H       11.44979039      12.09214554       0.75512548       0.24000000        9      -0.05001968       0.48322499      -0.52384248
H       11.40364003      13.29064555       2.73872479       0.26000000        9      -0.43100003      -1.27702345       0.33851738
H       12.41096969      11.76853696       2.72310427       0.28000000        9      -1.49582064       0.66116698       1.86819544
H       10.85740023      11.69131365       7.85095418       0.28000000        9       1.27543650      -0.41619214       0.38569660
H        9.16469433      11.82337688       8.09722308       0.26000000        9      -1.47478412      -1.11324358      -0.14703222
H        9.96662965      13.23703406       7.50513032       0.29000000        9       0.46791098      -0.40861281      -0.14167557
C        7.52059567       6.16726112       1.20850853      -0.70000000       10      -2.70596176       2.34046697       1.04660563
C        7.00510554       5.45176883       2.50815400      -0.21000000       10       3.28107625       1.50112280       0.53160634
O        5.61915927       5.21279296       2.43888320      -0.43000000       10      -1.22920789      -1.04080077       1.00629269
C        5.05541103       4.60898481       3.50175105       0.84000000       10       1.89596493      -0.31594812       1.83396970
O        5.61328864       4.28439348       4.61323907      -0.65000000       10      -0.93667181       0.97998884      -4.25326920
O        3.78716177       4.41074126       3.26410706      -0.44000000       10      -0.60943080      -0.54708155       0.50087963
C        2.98535576       3.87148414       4.35410394      -0.52000000       10      -0.53529567       2.43602769      -0.17835639
H        7.52650509       7.31185223       1.41201495       0.22000000       10      -0.91214809      -1.50365131      -0.66080519
H        6.96098532       5.90356137       0.26975140       0.20000000       10       0.42684503       0.22678568       1.08872411
H        8.55130439       6.10691263       1.06421267       0.32000000       10       1.73293348      -1.23626688      -0.21873777
H        7.28202066       6.04368055       3.48615639       0.24000000       10      -0.68439388      -0.91354324      -1.94511421
H        7.63129706       4.55691209       2.58014030       0.24000000       10      -0.69424545      -0.54472231       0.05262349
H        2.70716048       4.61225633       5.11122078       0.25000000       10       0.80268302       0.24712801       0.14410867
H        3.15575909       2.92530468       4.75780648       0.23000000       10       1.80336381      -1.33826568       0.56002062
H        2.06946045       3.68952058       3.89335028       0.28000000       10      -1.43601512       0.16503262      -0.99358221
C        5.65982693      10.17488172      11.83061819      -0.75000000       11      -1.62787517      -1.48071258       2.96171824
C        6.79113802      10.44908135      12.68163919      -0.23000000       11       0.80935949      -1.45160236       0.43330869
O        7.10794495      11.75698967      12.36123747      -0.48000000       11       2.49053425       2.48575209      -0.37268341
C        6.55958448      12.82089200      12.94037347       0.91000000       11      -1.95980780      -1.23119185       1.90362430
O        5.72877446      12.75948317      13.84013101      -0.63000000       11       0.33216714      -0.04865673      -0.09639607
O        7.01078220      13.92398787      12.40763352      -0.49000000       11       1.48797822       0.51649486      -1.88320592
C        6.40806025      15.16398312      12.63740259      -0.51000000       11      -3.51298298       0.35586052       1.04881764
H        5.52529390       9.11959137      11.84282495       0.26000000       11      -0.29612687      -1.01950597       0.18665053
H        5.97716403      10.33248347      10.88649474       0.27000000       11       0.34671740       1.51344298      -3.31146580
H        4.80256031      10.62968716      12.27602287       0.25000000       11      -0.78873798       0.70880536      -0.73834079
H        7.48215212       9.80048058      12.14296396       0.30000000       11       1.54530942       0.20100170       0.80099494
H        6.74754797      10.17248950      13.76245512       0.23000000       11      -0.10543504       0.52560374      -0.56177818
H        5.76234307      15.64177970      11.83125180       0.21000000       11       1.89927225      -0.99481195       0.25586928
H        6.99664873      15.79878662      13.23532718       0.31000000       11       1.81919255       1.11444726      -0.19426036
H        5.59215956      15.10148811      13.36785593       0.27000000       11      -0.18756278      -0.95832716       0.33502925
C        3.46097994      -2.30696221       1.87443669      -0.72000000       12       0.02411852       0.96113434       2.04677255
C        2.81996961      -1.04149309       1.27249060      -0.19000000       12      -1.29282369      -0.53390258       2.62244858
O        2.98057133      -0.09924462       2.44137886      -0.49000000       12      -0.67508777       2.31621374       2.38063282
C        1.87744959       0.47248198       3.17115979       0.89000000       12      -3.56631180      -6.59207337      -9.00690322
O        0.69198392       0.25186798       2.84492624      -0.66000000       12       1.26058423      -1.29507349      -1.24548805
O        2.00752147       1.31505910       3.99462505      -0.47000000       12       5.53152413       5.50992773       6.60560426
C        0.96218791       1.91522074       4.68922101      -0.45000000       12      -3.14483872       1.25333095      -0.07304893
H        2.83205999      -2.41510328       2.77599163       0.23000000       12      -0.30979820      -1.15652983      -0.29271045
H        4.41318520      -2.11285654       2.42878417       0.23000000       12      -0.07621337       0.51730196      -0.97996776
H        3.66663290      -3.18590101       1.28542149       0.25000000       12      -0.57635716      -0.29571602      -0.38581560
H        1.65311149      -1.15810390       1.21790929       0.22000000       12       2.21220297       0.33104473      -0.68724201
H        3.44935507      -0.62373466       0.49521449       0.30000000       12      -0.63098279       0.33096523      -0.23372835
H        0.56995506       2.74926347       4.07415006       0.24000000       12      -0.06379509      -0.31171983       0.22066478
H        1.20749992       2.36464693       5.65942607       0.26000000       12       1.14554826      -0.13565271      -0.96505598
H        0.05596491       1.29015420       4.86668462       0.31000000       12       0.87120135      -0.24215712      -0.33681833
C        3.52663010      -0.79752589       5.67071475      -0.70000000       13       0.12260740      -1.21474821       0.41718087
C        4.99594185      -0.83978405       5.20140084      -0.31000000       13      -5.03404013       1.73397603      -4.51720493
O        5.53047919       0.50187390       4.86272776      -0.46000000       13      -0.12012735       0.67491759      -0.74217265
C        6.56998092       0.58164459       4.02017650       0.85000000       13       4.79780528      -0.07107352      -0.13204856
O        7.36658871      -0.32373789       3.68072757      -0.62000000       13      -1.79065182      -0.81837888       0.50180450
O        7.07071690       1.83201043       3.77460587      -0.47000000       13      -3.98673901      -0.20238123       0.71096188
C        8.40294823       2.15066648       3.46826003      -0.51000000       13       2.06215462      -2.31330858       2.62553131
H        3.02992855      -1.81720455       5.74733030       0.26000000       13       1.35543605       0.36554222      -0.01519641
H        2.85252960      -0.38755186       4.92925722       0.24000000       13       0.32313435       0.77673515       0.32375463
H        3.48932446      -0.41885755       6.66137648       0.23000000       13      -0.81298947       0.79991011       0.79363147
H        4.67672977      -1.32795121       4.26988502       0.27000000       13       1.69086292      -0.21371595      -0.50568199
H        5.60199997      -1.37769636       5.76185169       0.30000000       13       3.06261985      -2.17976698       2.46933931
H        8.94943372       2.27597978       4.43197379       0.27000000       13      -0.36944084      -0.59130647      -0.11679160
H        8.46462860       3.12669044       3.18292690       0.31000000       13      -0.33925714       2.51078654      -1.69891705
H        9.06927726       1.48525554       2.90729194       0.23000000       13      -0.87568388      -0.23266959      -0.53531870
C        8.33912133       4.28572536       9.39721769      -0.72000000       14       1.35859421      -2.64828849       1.69104708
C        8.21009686       4.38899149      10.90796003      -0.30000000       14       0.33390443      -3.29886575      -1.46987119
O        6.85350372       4.46030538      11.31528322      -0.44000000       14      -0.23244674       0.38027177       0.30431238
C        6.14871821       5.53472052      11.05414379       0.85000000       14       1.57740644       3.06419161      -1.68980514
O        6.59282981       6.61989417      10.60253228      -0.60000000       14      -0.88235240      -2.61552061       1.55509637
O        4.85746489       5.25903384      11.22756003      -0.47000000       14      -1.04622514      -1.87207126      -0.20432595
C        3.97159513       6.32429391      11.42835097      -0.56000000       14       1.22672335       3.65206433       2.10587236
H        7.57665110       3.54885830       9.20474131       0.18000000       14      -0.17268712      -0.60602444      -1.08661075
H        9.37314036       3.94409111       9.09622524       0.27000000       14      -1.11415684      -0.24056970       0.61555607
H        8.24919989       5.11944483       8.80890075       0.27000000       14      -0.80250561       2.44246275      -0.93976430
H        8.89992132       5.05450587      11.23948231       0.35000000       14       1.31462942       3.02455590       1.74956474
H        8.59625218       3.42336397      11.37611015       0.27000000       14      -0.82358810       0.86818076      -0.59069986
H        2.89591275       6.41805583      11.41556231       0.18000000       14      -0.65839240      -1.75880902      -1.12720074
H        4.26839796       7.29046453      10.98368335       0.24000000       14       0.26004580      -1.01798672       0.05055722
H        4.10540403       6.50743418      12.47206817       0.25000000       14       0.25583653       0.58341414       1.25942353
Li       5.43089836       3.48891067       6.11931336       1.67000000       15      -0.32514512      -0.24921350      -0.12194803
Li       8.65710497      11.23065051       3.86163080       1.25000000       16      -0.25273748      -0.19583211      -0.04471564
Li       2.74111701       4.33227658      11.25277527       1.38000000       17       0.11239042      -0.26473050      -0.54763408
P        3.11051389       1.41608819      11.17821573       2.79000000       18      -1.78535129      -1.72829379       2.05417606
F        2.63133371       1.41602353       9.72608914      -0.61000000       18      -1.69597748      -0.94163067      -2.74953951
F        3.60219825       1.63368929      12.64182496      -0.61000000       18       0.73950433      -0.17373409       2.50902507
F        3.83214835       2.74804797      10.81206451      -0.61000000       18       2.23293188       3.54791423      -0.75042803
F        2.32435426       0.05483993      11.66060278      -0.60000000       18      -0.14019759       0.48970449      -0.87935828
F        1.79464014       2.24168705      11.54483247      -0.60000000       18      -1.55595085       1.32026480       0.22648578
F        4.33386708       0.55151561      10.78687512      -0.61000000       18       2.27509603      -1.48115998       0.07965640
P        9.57715109       8.42961174       3.36717923       2.66000000       19      -0.14057166      -0.96902292      -0.97810210
F        9.17891832       9.43273886       4.56116636      -0.58000000       19       0.55489400       1.34236558       0.76159210
F        9.79534702       7.38864882       2.15842501      -0.58000000       19       0.39590140       0.60529989      -0.24646424
F        8.05376234       7.83051043       3.63687891      -0.61000000       19       0.73277750      -0.83713264      -0.15267289
F       11.01480801       9.30202044       3.09016066      -0.58000000       19      -1.19018828      -1.87140841       0.69487279
F        8.82163768       9.46801434       2.40536632      -0.60000000       19      -0.30637606       1.49526408      -1.72264254
F       10.23189404       7.30991260       4.29697524      -0.58000000       19       0.49428836       0.63895852       0.93119870
P       10.66665659       3.70329198       6.33952650       2.91000000       20      -0.61300776      -0.57478894      -2.03072388
F        9.48636328       2.86202088       6.96348099      -0.64000000       20      -1.18268093      -2.28104916       1.55409496
F       11.72986065       4.68527709       5.73561491      -0.64000000       20       2.23566741       1.37069030      -1.73385960
F       11.77535154       2.93252012       7.07921250      -0.62000000       20       1.49335210      -1.15168879       2.25727722