160
Lattice="11.071604486301126 0.0 0.0 0.0 11.071604486301126 0.0 0.0 0.0 11.071604486301126" Properties=species:S:1:pos:R:3:forces:R:3:molID:I:1 energy=-24010.682254088093 virial="39.56993182859716 -13.520087623884116 3.248178320824245 -13.520087623884116 27.84637237240409 -3.6652812115407016 3.248178320824245 -3.6652812115407016 34.49198304667497" pbc="T T T"
C        6.50568587      10.10848561      -0.37887031       0.65246956       3.15956028       0.97847944        0
C        5.64563256      10.17678634       0.88856269       0.78441710      -0.68566517      -0.64776365        0
O        6.26137984      11.29018010       1.62331865       3.47830310      -0.56271530      -2.89850680        0
C        7.55126605      11.48576000       1.18212628       0.75196996       0.15170468      -1.63120711        0
O        8.38610932      12.25747297       1.66758292      -1.43765164      -2.08525204      -2.81373300        0
O        7.78818732      10.76568498       0.04644538      -0.16292074      -0.27646739       1.01319693        0
H        6.10107408      10.88458294      -1.10792439       0.95872390      -1.64166470       0.69829457        0
H        6.70994590       9.14381671      -0.76120602       0.60077352      -0.43007079      -0.35971748        0
H        5.56886205       9.22328869       1.53269757       0.75892006       1.91891336      -1.46231110        0
H        4.70401474      10.60572244       0.49062708       0.36833484      -1.01376233       1.46739516        0
C        9.12747502       1.14142706       3.97686497       2.35273647      -0.36009977       1.39851289        1
C        8.97966911      -0.06588712       4.97592228      -2.83981823      -0.68138881      -2.67605965        1
O       10.24499850      -0.14446230       5.70787712      -1.41520093       1.82909047      -0.74490735        1
C       10.72381217       1.14254530       5.60079256       2.38359810       1.46529402      -0.32336757        1
O       11.78561226       1.55645723       6.07089289      -2.46531384      -3.93289942      -3.61803721        1
O        9.96748873       1.99039770       4.82169483       1.08378146      -1.26134231       0.00287174        1
H        8.29018494       1.77387033       3.79434957       0.12842068      -0.31028534       0.81741077        1
H        9.57806718       1.00038589       2.92251608       0.22778377      -0.33431059       2.25482341        1
H        8.89986498      -1.05006418       4.33626033      -0.02551264       3.58171849       1.90423394        1
H        7.99041017       0.12105692       5.61757711       2.85734259      -0.80772642      -1.41209283        1
C        5.07799140       1.99277809       7.66741825       0.27731205      -0.50352150      -1.15292999        2
C        4.17494705       1.01611864       6.96483638       0.48326232      -2.94190435      -0.96030888        2
O        3.73499470      -0.04142994       7.96299688       1.06835502       7.06817347       1.22169648        2
C        4.30285730       0.46455345       9.12084313      -1.30572056      -2.58960236       1.27057286        2
O        4.13858790      -0.08644709      10.22004310      -2.01033432       2.32665752      -2.94519054        2
O        5.18679205       1.41863790       8.95884342       0.28848770       0.64104446       0.71893146        2
H        4.71173165       2.98757283       7.74703416      -0.22443649       0.34541589      -0.00697769        2
H        6.05568050       1.97830750       7.16909641      -0.02047701       0.09301360       0.24729494        2
H        4.80030449       0.29653078       6.42591496       0.30241569       0.65592521      -0.91697299        2
H        3.31904559       1.23349853       6.36164429      -0.63033218       0.89892285      -0.12080390        2
C        9.49591588       4.26184807       8.63706938      -0.78951935       0.50440075      -0.49990941        3
C        8.42195917       3.68784074       9.66939685       2.63637434      -1.76095461      -3.54811073        3
O        8.05323046       2.36124109       8.97425509      -0.71798880       1.41696562       0.50303961        3
C        8.54265073       2.31764111       7.69923805       0.51691868      -0.18337039      -0.00794416        3
O        8.24549994       1.48714899       6.83769007       0.26197823       2.39191558       2.67489981        3
O        9.56031940       3.23624106       7.59200956      -3.28767060       0.41956007      -0.44932791        3
H       10.52529831       4.38774329       9.08880191      -1.23631673      -0.28815821      -0.29292081        3
H        9.23324206       5.19614756       8.05500191      -0.10155153      -0.82106852       0.85022578        3
H        7.60880518       4.33174311       9.82961404      -1.29708865       0.47952774       0.31378391        3
H        9.00804563       3.40714235      10.49085454       0.25669394      -0.51761055       1.74687873        3
C        1.91443542       2.32056401       0.72125967      -1.87072719      -1.12064623       0.27617364        4
C        3.33815518       2.65223607       1.13415302      -1.06786118      -0.05602445       1.53761949        4
O        3.25719961       2.77227441       2.63205253       2.23622194      -0.71082110       0.84726561        4
C        4.44486170       2.64812850       3.38678167      -1.76711881      -0.99299478      -3.79026966        4
O        4.49680966       2.85903150       4.54866906      -0.63434736      -0.04749425       2.14816733        4
O        5.45596490       2.18243468       2.60343244      -1.67761171       1.88083731      -1.07275497        4
C        6.70907124       2.10017266       3.20856205      -2.49149369       3.20285652       3.86039724        4
H        1.35985875       1.29471343       0.54963873       2.24752054       0.61501690       0.75779806        4
H        1.77756824       2.72088002      -0.27943623      -0.03532813      -0.01639953       0.30229580        4
H        1.13144048       2.74337752       1.45827424       1.92601493      -0.16020610      -1.20754036        4
H        3.71916231       3.64221466       0.89224953      -0.67214092       0.56029209      -0.78307980        4
H        4.09281789       2.01353735       0.72957445       0.52316168      -1.13112391       0.24648412        4
H        6.89198522       1.09667564       3.33379297       0.16734487      -2.10819994       0.93529139        4
H        6.48948811       2.65137248       4.22365104       1.38854333      -1.22628115      -1.31460755        4
H        7.54749064       2.45536080       2.66040691      -0.35609624       1.29481252      -0.81968891        4
C        5.80066824       6.38606825      13.13477584      -1.37389110      -3.66242617      -2.33495423        5
C        6.09941334       6.52895838      11.60587583      -1.38421650       1.64450813       1.72069983        5
O        4.92011032       7.28938939      11.10107710       1.05967552       0.36585880      -1.28702834        5
C        5.02886669       7.87001755       9.85408228      -0.31980658       0.81032819       0.71609421        5
O        6.05384262       7.92104657       9.16827389      -2.80473372      -0.65505944       1.46092399        5
O        3.87619087       8.60412028       9.62817727       3.03142184      -2.56935105       1.32136837        5
C        3.59647786       8.88799622       8.28110622       2.08681865      -1.85507088      -0.09868411        5
H        6.06316491       7.16480063      13.82877722       0.07839178       0.46925892      -0.16069706        5
H        6.35698315       5.48532680      13.45467878       0.83549528       0.90904323      -0.98493046        5
H        4.78439459       5.86905754      13.39778180       0.84432163       2.10310002      -1.39570665        5
H        6.22033741       5.59941968      11.01298034      -0.06784875       0.43507263       0.43419468        5
H        6.97246471       7.19059746      11.67177402       0.28534995      -0.14778460      -1.08696853        5
H        3.50182671       7.95275565       7.70055557      -1.18842860       0.15468494       0.52987331        5
H        4.48901525       9.35250539       7.81738314      -0.31065644      -0.76038865       0.31133822        5
H        2.88063220       9.66710503       8.39704806      -1.36636969      -1.06854581      -0.68206726        5
C        1.58693736       7.61068735      -0.50431158      -2.95042563       1.48893491      -4.20306864        6
C        2.20414609       6.64268590       0.36167610       3.37723463      -1.43386906       1.72568010        6
O        1.22984490       5.98306185       1.24253296      -0.52741787      -1.29364051      -0.83369561        6
C        0.62743890       4.88631978       0.70613586      -1.35921296      -0.01794448      -0.09627497        6
O        0.79014720       4.28637168      -0.36634832      -1.38842762       2.91066324       2.92949844        6
O       -0.39265445       4.56245321       1.55269288       1.08408433       2.45894769      -0.25006004        6
C       -0.88995771       3.29838598       1.83309234      -0.30267702      -0.95156191       0.46894590        6
H        2.17873676       7.99513775      -1.47296626      -1.66915847      -1.40420270       2.77029561        6
H        1.18414131       8.46945636       0.11557648       1.30118881      -1.29329752      -2.08747511        6
H        0.60003668       7.19737329      -0.96018490       1.55049021       0.06567078       0.54331876        6
H        2.97523906       7.11172335       1.09442810      -1.55239052      -0.53217282      -0.89423456        6
H        2.83644542       5.82822546      -0.10464881      -0.93033241       0.74699004      -0.00991491        6
H       -2.01485487       3.44640226       1.85293266       1.20253616      -0.57100698       0.23271184        6
H       -0.40125709       3.05400245       2.81714762      -1.06057295      -0.22939777      -0.36506799        6
H       -0.57255695       2.49712289       1.12519609      -0.67117711       0.58334556       0.00775273        6
C        4.79101541      10.61045002       3.45994283      -2.01860306      -0.43969523       3.02523770        7
C        4.23146759       9.15833159       3.14383745       0.61808429       2.06581083      -2.11627954        7
O        3.12127352       9.28180212       2.11634827      -1.07194831      -0.26563655       1.63649475        7
C        1.84144033       9.44390148       2.55620097       0.96279515      -0.56109976      -1.66483086        7
O        1.43697247       9.85486837       3.60453799       0.30478661       1.36741735      -0.06666229        7
O        1.00979676       8.99608829       1.52444922       3.30712767       0.12711726       2.70119276        7
C       -0.23347800       9.48697002       1.54304952      -2.21445301       0.88437229       3.60114375        7
H        3.95410175      11.28223069       3.92188339       0.62844911      -1.19653995      -1.37713086        7
H        5.35274433      11.05641424       2.65828117      -1.52737897       0.08639138       1.29908851        7
H        5.46136785      10.75721521       4.36984050      -0.13421806      -1.20668018      -0.78335564        7
H        4.10424378       8.65212676       4.08589813      -1.75792169       0.53070906      -1.63764932        7
H        4.82504952       8.47761613       2.44028127      -0.29031526       0.91749269       1.80305555        7
H       -0.52128435       9.81715848       0.62695175      -1.07576052       0.84763038      -2.84974050        7
H       -0.27099966      10.26918995       2.27680903       0.24537099       1.76231595       0.05158985        7
H       -1.00340844       8.97385651       2.12123085       0.21976404      -1.50642992      -1.09979716        7
C        9.36848171       7.76540195       9.40061151      -3.31584974      -1.58545620      -0.68121870        8
C        9.06218577       8.81910870       8.15751390      -0.63179921      -3.48083666      -0.18557115        8
O        7.79533957       8.29274248       7.79119879      -1.96923280       0.21294284      -1.58519221        8
C        6.97243150       8.94070813       6.92919688       1.55234910      -2.52396531       1.21891090        8
O        7.09634490      10.11851649       6.72479292      -1.93357172       0.64653701      -0.47091959        8
O        6.18423290       7.92327196       6.40461319      -0.49854338       2.12809233      -1.03182207        8
C        4.88618692       8.23597836       5.69492334       2.43632843      -3.46402972       1.36696370        8
H        9.68318100       6.72598865       9.13420656       1.01274403       1.23458905      -0.49942902        8
H        8.40859575       7.29258909       9.90370522       0.56825718       1.66475555      -1.10196903        8
H        9.83348910       8.12446516      10.27851224       1.22897229       0.71081075       0.54826063        8
H        9.62998194       8.60648960       7.19893438      -1.25929919       0.07501097       1.12934009        8
H        9.16349095       9.87381188       8.45248359      -1.46229727      -0.53670324      -0.41321494        8
H        4.89673816       7.84845006       4.61855303       1.20514062      -0.45560077       2.15536417        8
H        4.63467328       9.25530777       5.60720302       0.05839974       1.55399388       0.66760022        8
H        4.19360270       7.60218436       6.31028312       1.02940375       0.82824098      -0.80497926        8
C        2.45355613       7.58957380       4.95525159      -0.34935489       1.05058888       1.93488429        9
C        0.99640012       7.84286997       5.12445892      -1.83082109      -0.27097810      -0.05773209        9
O        0.51190671       7.89185075       6.53979748      -0.77848230      -2.03859144      -1.51723097        9
C        0.68734735       9.02724379       7.12421212       2.51651088       1.32382077       0.75152410        9
O        1.52484780       9.83844918       6.72441649      -1.52238022       0.00627545       0.83179419        9
O       -0.04446356       9.03054313       8.31070062       5.03552172       2.58903883       0.04551675        9
C        0.04095386      10.36004354       8.93397659       1.72729352       1.72432136      -2.47827050        9
H        2.69468460       6.82688419       5.70425671       0.07496775      -0.60280549      -0.41069097        9
H        3.14519926       8.43493509       5.23317101      -2.21944910      -0.58681994      -0.50460981        9
H        2.60725214       7.27164161       3.94595305       0.32629315      -0.56035192      -0.71727826        9
H        0.51684464       6.93391339       4.73757277      -0.16414787      -0.06679914       0.41844289        9
H        0.53032985       8.70004466       4.54811548       0.75628771      -0.93706906       1.23812000        9
H        0.24020953      11.11175012       7.97909499      -0.50028627      -1.53858140       2.56146792        9
H        0.92022748      10.46414983       9.62658296      -0.77440259      -0.27430905      -0.36612055        9
H       -0.94173961      10.58445389       9.35959121       0.48174453       0.07504056       0.52299042        9
C        0.93856206       2.74429646       7.72868851       1.19099816       2.76751373       3.24761762       10
C        1.63868604       3.87517229       8.50449798       0.69485571       0.34227479      -1.22344635       10
O        2.94850113       4.11321178       7.67088367       0.91258438       1.19007744       0.81576807       10
C        3.97506030       4.83194713       8.18579078       0.43261998      -0.18715653       0.01286325       10
O        4.13214423       5.20444019       9.36372092      -0.26100950      -0.58884056      -2.16511581       10
O        5.01506040       4.98582029       7.14675391      -1.38332729       0.54975953       2.41530967       10
C        6.24999823       5.47677952       7.80265790       0.27843846      -0.43412881       0.59986028       10
H        1.04710807       1.63530920       7.97011592       0.67665985       1.88921770       0.39114325       10
H        1.29388306       3.03965365       6.72984157      -0.56631686       0.00732730       0.64759400       10
H       -0.14670983       3.06706695       7.90624384       3.11684593      -1.66780446      -0.84874653       10
H        1.79110882       3.82382218       9.60952161       1.13495102       0.05013978      -2.06706228       10
H        1.04522589       4.84451340       8.26680171       1.09436792      -1.12583375       0.48301180       10
H        7.08115465       5.67124118       7.07148914      -1.69127983      -0.74669039       1.12633636       10
H        6.52879231       4.68808270       8.57345194      -0.25734488       0.93191423      -1.02260994       10
H        6.14239331       6.45346111       8.26454310      -0.55684070      -0.57859409       0.20346777       10
C        8.84915703       8.39096975       3.80166790      -3.64893952       0.10017732       0.02313394       11
C        9.33485725       6.96451530       3.55725116      -1.60942188      -1.02896726       0.23649143       11
O        9.19396001       6.13725609       4.81590438       1.10437004       1.19369215       0.12317575       11
C        8.01501128       5.52336883       5.08725833       1.70329959       0.29308725      -1.62933444       11
O        7.86850074       4.77433050       5.98636119       1.27416731      -2.30013503       1.76961737       11
O        7.12525285       5.73965262       4.19358056      -2.43849618       0.68969192      -2.45678500       11
C        5.71973481       5.18893995       4.34727657       2.22219348       0.23904572       1.05206633       11
H        8.68736767       9.23710605       2.93398626       1.07559879      -2.35136916       1.67597320       11
H        9.27235804       8.83860579       4.75842061       0.12031506      -1.44939329      -1.36285687       11
H        7.69596085       8.35838602       4.04812182       1.72096252      -0.28987948       0.04062037       11
H       10.35405380       6.96751571       3.21082066       0.66341614      -0.44808924       0.26229281       11
H        8.75307765       6.27244038       2.92429861       0.07775128       1.14516808      -0.82871411       11
H        5.31718234       5.01804973       3.35805086      -0.06113394      -0.10628021       1.10778289       11
H        5.30183710       5.97282062       4.94167780      -1.08195072      -0.08638011       0.26422318       11
H        5.79250846       4.24641426       4.82140696       0.12881122      -0.35614098       1.10021339       11
160
Lattice="11.200951064509791 0.0 0.0 0.0 11.200951064509791 0.0 0.0 0.0 11.200951064509791" Properties=species:S:1:pos:R:3:forces:R:3:molID:I:1 energy=-24014.84788253849 virial="29.002426775406725 -13.736519429779337 3.4993290956345358 -13.736519429779337 18.810332520555928 -3.9869321773057886 3.4993290956345358 -3.9869321773057886 23.503346162519307" pbc="T T T"
C        6.58779456      10.23726604      -0.36907134       0.60018119       3.12121687       0.91440683        0
C        5.72772954      10.30556944       0.89837228       0.62482016      -0.55781070      -0.67415004        0
O        6.34347942      11.41896638       1.63312107       3.07076278      -0.55092072      -2.36649801        0
C        7.63336974      11.61454618       1.19192681       0.77304001       0.20279833      -1.47114675        0
O        8.46821023      12.38625811       1.67738723      -1.39135084      -1.93379418      -2.37907044        0
O        7.87029226      10.89447064       0.05623998      -0.18927462      -0.29968753       0.96867128        0
H        6.18318261      11.01336874      -1.09811884       0.84844897      -1.60659169       0.66188859        0
H        6.79204391       9.27259533      -0.75140460       0.54169085      -0.51964446      -0.42006634        0
H        5.65095822       9.35206608       1.54249417       0.66654459       1.83803608      -1.36467212        0
H        4.78612159      10.73450986       0.50042489       0.27812713      -0.97612597       1.32706902        0
C        9.24598187       1.15242105       4.03751722       2.13610929      -0.30011642       1.17784922        1
C        9.09817412      -0.05488466       5.03657485      -2.79919405      -0.85091281      -2.59094900        1
O       10.36350076      -0.13345933       5.76853460      -1.38051854       1.83290800      -0.75102529        1
C       10.84231901       1.15354115       5.66145351       2.42500252       1.52011196      -0.19221129        1
O       11.90412437       1.56746109       6.13154623      -2.41213540      -3.43625770      -2.96973304        1
O       10.08598599       2.00140834       4.88234896       1.02585713      -1.27840615      -0.03304664        1
H        8.40868838       1.78487155       3.85499773      -0.17889958      -0.26426865       0.65768610        1
H        9.69656253       1.01138988       2.98317170       0.14252740      -0.31404882       2.12687225        1
H        9.01836734      -1.03905623       4.39692214       0.00851895       3.22797878       1.83132763        1
H        8.10891732       0.13205921       5.67823253       2.79647743      -0.79036667      -1.30816641        1
C        5.12983397       2.00191238       7.76658265       0.27317632      -0.48833888      -1.12770020        2
C        4.22680209       1.02526785       7.06400300       0.47293388      -3.01036113      -0.96098674        2
O        3.78683994      -0.03229234       8.06216455       0.97455566       6.45667662       1.24531936        2
C        4.35470575       0.47368822       9.21999566      -1.24644262      -2.72826659       1.34354560        2
O        4.19043261      -0.07730896      10.31920100      -1.70675241       2.07790945      -2.65564137        2
O        5.23864001       1.42777403       9.05799631       0.32383701       0.66744585       0.69721371        2
H        4.76357407       2.99671365       7.84618781      -0.25914172       0.44077942       0.00064291        2
H        6.10753139       1.98745195       7.26826354       0.00439400       0.10379855       0.24371459        2
H        4.85215119       0.30567395       6.52508044       0.30426904       0.65133098      -0.93014751        2
H        3.37089262       1.24264471       6.46080938      -0.63352900       0.90572898      -0.13770347        2
C        9.59782614       4.29556473       8.73319113      -0.70006444       0.43597513      -0.53930736        3
C        8.52386776       3.72156079       9.76551558       2.60821719      -1.75162011      -3.56868999        3
O        8.15514365       2.39496495       9.07038456      -0.76302658       1.42154798       0.50431216        3
C        8.64456920       2.35135965       7.79535790       0.60253673      -0.22174747      -0.03418159        3
O        8.34741917       1.52086514       6.93381435       0.25364077       2.25398912       2.53404455        3
O        9.66223161       3.26996085       7.68813119      -2.74209244       0.28686069      -0.38511726        3
H       10.62720475       4.42146342       9.18492549      -1.18443382      -0.27063707      -0.28047531        3
H        9.33515264       5.22985846       8.15113371      -0.09794650      -0.78942681       0.85353640        3
H        7.71072351       4.36545867       9.92574519      -1.32670226       0.49521252       0.29661229        3
H        9.10995752       3.44086496      10.58698213       0.25513831      -0.51577846       1.76000479        3
C        1.96399716       2.34979152       0.75175183      -1.97402969      -0.99948865       0.22534784        4
C        3.38771645       2.68147408       1.16464129      -1.06909886      -0.04593837       1.54698562        4
O        3.30676718       2.80150347       2.66254447       2.23579628      -0.72311475       0.81858735        4
C        4.49442642       2.67736333       3.41727576      -1.74596756      -0.96503018      -3.76254312        4
O        4.54637643       2.88826604       4.57916161      -0.53619584       0.08574322       2.16445850        4
O        5.50552507       2.21167259       2.63392604      -1.59329339       1.68990091      -1.12773763        4
C        6.75864267       2.12940161       3.23904623      -2.21258606       3.07315246       3.81482890        4
H        1.40942687       1.32395242       0.58013086       2.24843023       0.63338145       0.75131408        4
H        1.82714394       2.75011351      -0.24895234      -0.09064420       0.12152996       0.22991971        4
H        1.18100588       2.77261622       1.48876321       1.84671986      -0.10787446      -1.19491375        4
H        3.76872800       3.67145894       0.92274555      -0.66960979       0.56028374      -0.77761825        4
H        4.14238053       2.04277345       0.76006294       0.52905778      -1.13973894       0.24104096        4
H        6.94155420       1.12591960       3.36428406       0.26728377      -2.16496675       0.94596968        4
H        6.53904803       2.68061161       4.25414362       1.39863865      -1.20674368      -1.31925400        4
H        7.59705626       2.48459497       2.69090528      -0.22040323       1.22524922      -0.82842203        4
C        5.85966554       6.47541542      13.25612397      -1.36060982      -3.73850209      -2.02535250        5
C        6.15840611       6.61830596      11.72721655      -1.38714907       1.61869418       1.72357199        5
O        4.97910277       7.37873852      11.22242329       0.95902697       0.32342279      -1.26266784        5
C        5.08786401       7.95936222       9.97542141      -0.21733747       0.87400133       0.70619056        5
O        6.11284064       8.01039376       9.28962077      -2.57367975      -0.62721230       1.33888628        5
O        3.93519653       8.69346136       9.74952062       2.75243357      -2.54557555       1.38225134        5
C        3.65547518       8.97734946       8.40244945       2.09256988      -1.51617129      -0.16760925        5
H        6.12215983       7.25415034      13.95012369       0.07752293       0.50217125      -0.13110378        5
H        6.41598318       5.57467974      13.57602313       0.83441136       0.84656309      -0.83144254        5
H        4.84339205       5.95840192      13.51912230       0.86466914       1.98334559      -1.24736353        5
H        6.27933157       5.68876143      11.13431661      -0.05692490       0.42902642       0.42868259        5
H        7.03146424       7.27994613      11.79312295       0.28197515      -0.14753701      -1.08754921        5
H        3.56081595       8.04209245       7.82190415      -1.17211650       0.17644247       0.47258514        5
H        4.54801177       9.44184170       7.93871887      -0.30878552      -0.61114723       0.29948150        5
H        2.93963360       9.75644281       8.51839049      -1.33826217      -0.89558090      -0.72691235        5
C        1.59538506       7.67271868      -0.49621333      -2.91604119       1.60808931      -4.05742649        6
C        2.21259107       6.70471009       0.36977700       3.39946026      -1.46040331       1.73517580        6
O        1.23828754       6.04509728       1.25061979      -0.48964970      -1.23288395      -0.83279689        6
C        0.63588919       4.94835616       0.71423985      -1.32816503      -0.14086249      -0.18593757        6
O        0.79858301       4.34839962      -0.35825122      -1.05725139       2.58728374       2.62360458        6
O       -0.38421502       4.62448066       1.56078533       1.08252789       2.45384787      -0.23773526        6
C       -0.88151485       3.36040853       1.84118993      -0.30542837      -1.00321800       0.47289227        6
H        2.18718731       8.05716893      -1.46486038      -1.51906572      -1.30513390       2.71498683        6
H        1.19258766       8.53148440       0.12368090       1.23978797      -1.23620241      -1.92391871        6
H        0.60849167       7.25940359      -0.95208084       1.51361209       0.08188437       0.51430281        6
H        2.98368694       7.17374992       1.10252081      -1.50820457      -0.50732968      -0.89276801        6
H        2.84488476       5.89025534      -0.09655220      -0.90174754       0.73578897      -0.03210935        6
H       -2.00641516       3.50842910       1.86102682       1.17163847      -0.61081951       0.24345971        6
H       -0.39281735       3.11603738       2.82524949      -1.06374476      -0.24238993      -0.35452780        6
H       -0.56411350       2.55914850       1.13328983      -0.63091307       0.56776767       0.00178304        6
C        4.81782028      10.72208800       3.48992513      -1.84020767      -0.32938488       2.82021345        7
C        4.25826557       9.26997431       3.17382309       0.75574143       1.96299338      -2.07061134        7
O        3.14808330       9.39344239       2.14632624      -1.02966782      -0.29490684       1.63705668        7
C        1.86824023       9.55554255       2.58617639       0.88795693      -0.61089413      -1.63989478        7
O        1.46377389       9.96650545       3.63451820       0.26287880       1.21855613       0.03849893        7
O        1.03660322       9.10772853       1.55443439       3.39416863       0.01077489       2.39130138        7
C       -0.20666875       9.59861021       1.57302796      -2.22503701       0.89085547       3.63021621        7
H        3.98089641      11.39387625       3.95186355       0.64451314      -1.16599091      -1.40161197        7
H        5.37954797      11.16805387       2.68826186      -1.37090179       0.13180092       1.04553731        7
H        5.48817480      10.86885407       4.39982319      -0.13189167      -1.20145778      -0.78456442        7
H        4.13105636       8.76376973       4.11587908      -1.63394273       0.32247731      -1.29584732        7