10
Lattice="20.0 0.0 0.0 0.0 20.0 0.0 0.0 0.0 20.0" Properties=species:S:1:pos:R:3:initial_charges:R:1:molID:I:1:forces:R:3 uid=a4fdb1bbe6c68dc2a71091ccaef6b3b9 mID=0 energy=-1853.4217239232316 virial="5.895441143503315 -6.2090567870019004 -2.2493248132625454 -6.2090567870019004 8.53415017605136 -0.6758733614987639 -2.2493248132625454 -0.6758733614987639 7.628593239022157" pbc="T T T"
C        9.81754000      10.90154000       9.38712000      -0.35000000        0      -0.76347711       1.84809586      -1.33368176
C        9.28098000      10.01700000      10.47302000      -0.31000000        0      -3.03691706       3.12255354       0.12781618
O       10.24248000       9.07912000      10.58944000      -0.46000000        0      -0.62777581      -2.06830159       2.98907728
C       10.71512000       8.97490000       9.41198000       0.96000000        0       7.46577490      -3.87730883      -2.37338677
O       11.69846000       8.29980000       9.11666000      -0.62000000        0      -0.94934108      -1.25508290       0.60437577
O       10.39032000       9.87902000       8.57710000      -0.47000000        0      -2.07704918       2.99898360      -2.50777250
H       10.54780000      11.70020000       9.51630000       0.31000000        0       0.85877900      -0.23625353       1.04735201
H        9.09828000      11.48952000       8.81332000       0.33000000        0      -0.81106355      -0.48439729      -0.13302078
H        8.30154000       9.67246000      10.01956000       0.27000000        0       0.54999586      -0.31612070       0.99115543
H        9.19038000      10.51358000      11.42290000       0.34000000        0      -0.60891597       0.26783184       0.58808514
10
Lattice="20.0 0.0 0.0 0.0 20.0 0.0 0.0 0.0 20.0" Properties=species:S:1:pos:R:3:initial_charges:R:1:molID:I:1:forces:R:3 uid=a4fdb1bbe6c68dc2a71091ccaef6b3b9 mID=1 energy=-1852.2962387961572 virial="27.7250369208707 2.080333081144107 0.6671019790641444 2.080333081144107 4.684534174645264 -2.3488081728789783 0.6671019790641444 -2.3488081728789783 16.78629155694238" pbc="T T T"
C       11.23280000       9.65804000      10.70214000      -0.38000000        1       0.57998496       0.83305090       0.60350840
C       10.86930000      10.23984000       9.41998000      -0.33000000        1       3.71869715       2.23371128      -3.39336662
O        9.58820000       9.97384000       9.24824000      -0.49000000        1      -1.92469819      -1.68502044      -2.97703688
C        9.14664000       9.79654000      10.45070000       1.03000000        1      -6.98267492       1.05767470      -5.28189262
O        8.00032000       9.88176000      10.58494000      -0.66000000        1      -6.65492361      -0.24366193       1.80624838
O        9.94792000       9.69436000      11.31352000      -0.48000000        1       7.87812773      -1.67865161       8.52693360
H       11.99968000      10.12146000      11.28322000       0.35000000        1       0.39092165       0.56478100       0.65034998
H       11.55756000       8.70832000      10.38472000       0.33000000        1       0.19133099      -2.12786441       0.71434776
H       11.38780000       9.66584000       8.68646000       0.32000000        1       1.15540909       0.09424827      -1.23897020
H       10.84408000      11.29168000       9.15144000       0.30000000        1       1.64782516       0.95173222       0.58987820
10
Lattice="20.0 0.0 0.0 0.0 20.0 0.0 0.0 0.0 20.0" Properties=species:S:1:pos:R:3:initial_charges:R:1:molID:I:1:forces:R:3 uid=a4fdb1bbe6c68dc2a71091ccaef6b3b9 mID=2 energy=-1852.9172786570355 virial="9.87931816026126 1.355725612252325 0.7283352277406253 1.355725612252325 18.350905449668762 -6.427918521856822 0.7283352277406253 -6.427918521856822 9.931591693928352" pbc="T T T"
C       10.92584000      10.92064000       9.59242000      -0.43000000        2      -4.43767360      -3.04925815      -2.88451986
C        9.41442000      10.88076000       9.94788000      -0.38000000        2       0.33905452      -0.50256900       0.61352212
O        9.32082000       9.67492000      10.63622000      -0.49000000        2      -2.02528050      -1.58156568       1.02548898
C       10.52126000       9.22796000      10.89356000       0.99000000        2      -2.02874720      -4.00143956       1.11429636
O       10.75354000       8.16792000      11.37340000      -0.63000000        2       0.23453851      -1.93737386       1.84864077
O       11.39510000       9.91892000      10.33738000      -0.48000000        2       6.31281421       1.71823032       0.67838254
H       11.16628000      11.83208000       9.80046000       0.41000000        2       2.74401657       5.51162740       1.23147961
H       11.13416000      10.55254000       8.62660000       0.34000000        2       0.11072663       0.63845385      -2.06616679
H        8.60490000      10.72738000       9.29888000       0.36000000        2      -0.84247343       0.99740643      -2.00627825
H        9.18402000      11.52574000      10.74830000       0.33000000        2      -0.40695573       2.20647826       0.44515452
10
Lattice="20.0 0.0 0.0 0.0 20.0 0.0 0.0 0.0 20.0" Properties=species:S:1:pos:R:3:initial_charges:R:1:molID:I:1:forces:R:3 uid=a4fdb1bbe6c68dc2a71091ccaef6b3b9 mID=3 energy=-1851.7187684999876 virial="16.41699903666085 -8.70302248644331 -8.475523503520916 -8.70302248644331 11.457514712411932 1.9353649394938581 -8.475523503520916 1.9353649394938581 17.500092905563367" pbc="T T T"
C       10.50976000       9.53870000      10.93954000      -0.31000000        3      -1.66221522      -1.49008966       0.47761493
C        9.74868000      10.84956000      10.84496000      -0.38000000        3      -3.01600742      -3.47043513       1.22126835
O       10.11212000      11.33626000       9.58576000      -0.49000000        3     -11.14476466       9.22652232       7.18061457
C       10.91084000      10.65422000       9.10824000       1.08000000        3       6.59543639      -5.76398019      -4.11350113
O       11.28772000      10.79686000       8.03348000      -0.67000000        3       3.12742069       0.85099279      -7.14244728
O       11.28270000       9.66224000       9.82314000      -0.50000000        3       5.06859856      -3.36603328       1.58364146
H       10.06316000       8.57498000      10.64124000       0.30000000        3      -1.62406758       0.17559288       0.68846391
H       10.80772000       9.31382000      11.96652000       0.31000000        3       1.58042898       0.41165744       0.04619948
H        9.85974000      11.42502000      11.69022000       0.37000000        3       1.20627908       2.34308290       1.48351905
H        8.71228000      10.45444000      11.06590000       0.29000000        3      -0.13109882       1.08268991      -1.42536333
10
Lattice="20.0 0.0 0.0 0.0 20.0 0.0 0.0 0.0 20.0" Properties=species:S:1:pos:R:3:initial_charges:R:1:molID:I:1:forces:R:3 uid=a4fdb1bbe6c68dc2a71091ccaef6b3b9 mID=4 energy=-1854.011543400808 virial="6.212635248117631 -3.197990119664681 3.4635966964380733 -3.197990119664681 8.200556984629282 -1.6097824111003463 3.4635966964380733 -1.6097824111003463 5.185919182719652" pbc="T T T"
C        9.94978000      11.19106000       9.27606000      -0.38000000        4       0.25742641       1.00423846      -0.07504899
C       10.27608000      10.98108000      10.72112000      -0.30000000        4      -2.62339434      -0.67934744       0.64177504
O       11.06118000       9.88416000      10.60224000      -0.50000000        4       3.57018365      -2.07549343       2.38493091
C       10.84188000       9.18678000       9.48218000       0.97000000        4      -0.91466821      -0.51565650       0.92516941
O       10.90666000       8.00446000       9.38922000      -0.59000000        4       0.96373396      -1.19902822      -0.41471154
O       10.32494000      10.01098000       8.59892000      -0.48000000        4      -1.01101535       0.57487788      -1.85896745
H       10.52946000      11.99554000       8.90194000       0.33000000        4       0.71613828       1.06858079      -0.69860379
H        8.93882000      11.40888000       9.14070000       0.35000000        4      -1.96438255       0.24025305      -0.61813728
H        9.44758000      10.62430000      11.40108000       0.27000000        4      -0.15369941       0.64785583      -0.70745181
H       10.68002000      11.82360000      11.21920000       0.34000000        4       1.15966757       0.93370959       0.42104553
10
Lattice="20.0 0.0 0.0 0.0 20.0 0.0 0.0 0.0 20.0" Properties=species:S:1:pos:R:3:initial_charges:R:1:molID:I:1:forces:R:3 uid=a4fdb1bbe6c68dc2a71091ccaef6b3b9 mID=5 energy=-1853.1230891246485 virial="7.890429039266152 4.771856372428467 -1.1353260776816674 4.771856372428467 14.200925261873623 4.378892205801059 -1.1353260776816674 4.378892205801059 9.879342022212532" pbc="T T T"
C        9.39922000       8.75558000       9.39868000      -0.46000000        5       0.56389345       1.55304690       1.04513022
C       10.28874000       9.07460000      10.58340000      -0.43000000        5       0.01079297       2.80390254      -4.20166674
O       10.15046000      10.49494000      10.56542000      -0.50000000        5       1.55344853       0.65215955       2.55464324
C        9.24560000      10.89762000       9.68904000       1.00000000        5      -0.00970984       4.22373793       2.42102214
O        8.80674000      11.99702000       9.56210000      -0.63000000        5       0.51996043       2.88987450       0.27234734
O        8.68942000       9.98338000       9.08090000      -0.47000000        5      -1.70557233      -7.03638295      -3.20834062
H        8.78486000       8.00298000       9.65422000       0.38000000        5      -3.01494426      -2.47206801       0.81800994
H        9.93420000       8.40586000       8.61100000       0.37000000        5       1.74220166      -0.63145214      -2.94825529
H       11.31058000       8.92008000      10.48030000       0.36000000        5       2.33614821      -0.48370573      -1.18044569
H       10.14052000       8.51530000      11.38900000       0.39000000        5      -1.99621882      -1.49911260       4.42755547
10
Lattice="20.0 0.0 0.0 0.0 20.0 0.0 0.0 0.0 20.0" Properties=species:S:1:pos:R:3:initial_charges:R:1:molID:I:1:forces:R:3 uid=a4fdb1bbe6c68dc2a71091ccaef6b3b9 mID=6 energy=-1853.7903928998269 virial="7.359637879673195 4.278559671281226 1.4552603654446252 4.278559671281226 7.422323539931835 0.15310293620618223 1.4552603654446252 0.15310293620618223 7.375687088473036" pbc="T T T"
C        9.12586000       9.51312000       9.35724000      -0.31000000        6      -2.45929489       0.76479387      -2.51232634
C        9.50858000       9.67288000      10.75158000      -0.34000000        6      -2.37974086      -1.87931348       0.31424898
O       10.47588000      10.58424000      10.77236000      -0.48000000        6       1.40290003       3.14698614       1.40908802
C       10.82948000      10.86402000       9.50784000       0.94000000        6       2.83445347       0.64452947      -0.63943667
O       11.76598000      11.54662000       9.20438000      -0.59000000        6       0.14555308       0.80812414       0.12709794
O       10.17648000      10.11938000       8.62908000      -0.47000000        6      -0.31154548      -0.61033071      -0.70746889
H        8.23402000      10.10932000       9.05596000       0.28000000        6      -0.13305298      -0.72839935       0.12067094
H        9.07210000       8.45338000       9.14894000       0.32000000        6      -0.48513554      -0.29682449      -0.74683445
H        9.91278000       8.73934000      10.86780000       0.33000000        6       1.53927633      -2.69427174       1.81021131
H        8.62616000       9.72732000      11.37092000       0.32000000        6      -0.15341317       0.84470615       0.82474917
10
Lattice="20.0 0.0 0.0 0.0 20.0 0.0 0.0 0.0 20.0" Properties=species:S:1:pos:R:3:initial_charges:R:1:molID:I:1:forces:R:3 uid=a4fdb1bbe6c68dc2a71091ccaef6b3b9 mID=7 energy=-1852.9361584552635 virial="12.072094219636867 0.9988249099924202 4.796850352211782 0.9988249099924202 15.963590645489127 -1.0922180320950152 4.796850352211782 -1.0922180320950152 5.6447365104617875" pbc="T T T"
C        9.66400000      10.65684000       9.61464000      -0.34000000        7      -2.87441389       2.32515560      -2.78824408
C        9.31014000       9.23052000       9.26706000      -0.38000000        7       0.18521065       1.38182764      -0.00334260
O       10.21436000       8.63298000      10.12774000      -0.49000000        7      -3.30019981      -8.23973516      -2.48604675
C       10.96950000       9.38976000      10.69536000       0.98000000        7       6.04509252       1.08513810       8.93312451
O       11.67788000       9.18406000      11.71638000      -0.64000000        7      -0.58307492      -0.83089912      -2.46008749
O       10.73200000      10.58684000      10.38380000      -0.48000000        7       3.57173580       4.96689277      -0.05046898
H        8.97646000      11.15114000      10.25236000       0.33000000        7      -1.93724543       0.31617303       0.51713837
H        9.76960000      11.36702000       8.79770000       0.32000000        7       0.37204381      -0.02412137      -0.68199177
H        9.49634000       8.86964000       8.28362000       0.34000000        7       0.00525187      -0.10099626      -1.17869682
H        8.32212000       9.08108000       9.59986000       0.35000000        7      -1.48441059      -0.87943524       0.19862560
10
Lattice="20.0 0.0 0.0 0.0 20.0 0.0 0.0 0.0 20.0" Properties=species:S:1:pos:R:3:initial_charges:R:1:molID:I:1:forces:R:3 uid=a4fdb1bbe6c68dc2a71091ccaef6b3b9 mID=8 energy=-1853.7898527945745 virial="5.250971208027453 -4.06490146950343 -0.18846597669727116 -4.06490146950343 6.0621739584989935 1.0616659184321953 -0.18846597669727116 1.0616659184321953 9.160176032316162" pbc="T T T"
C       10.15264000      11.23640000       9.24840000      -0.39000000        8       2.95830194      -1.21039576       1.89907962
C        9.65686000      11.12846000      10.65566000      -0.42000000        8       0.17343091       0.87754249      -0.13006277
O        8.81006000       9.99954000      10.61506000      -0.47000000        8      -1.11814466       1.58684149       3.45530855
C        9.19944000       9.25558000       9.65524000       0.96000000        8      -1.54188248      -5.77657554      -1.71061817
O        8.81368000       8.08602000       9.48032000      -0.61000000        8       0.82844410       2.17455771       0.17780792
O       10.01860000       9.89316000       8.87358000      -0.48000000        8       1.98003041      -0.43237655      -2.95675610
H       11.18994000      11.58066000       9.03358000       0.31000000        8      -0.11165381      -0.43282517       0.81587229
H        9.62840000      11.82658000       8.65172000       0.39000000        8      -3.14248998       2.60039279      -2.81864854
H        9.13388000      11.91398000      11.09054000       0.37000000        8      -1.65961623       1.93112595       0.07789696
H       10.44580000      11.10544000      11.34828000       0.34000000        8       1.63357979      -1.31828742       1.19012025
10
Lattice="20.0 0.0 0.0 0.0 20.0 0.0 0.0 0.0 20.0" Properties=species:S:1:pos:R:3:initial_charges:R:1:molID:I:1:forces:R:3 uid=a4fdb1bbe6c68dc2a71091ccaef6b3b9 mID=9 energy=-1853.8189948695788 virial="6.156290591603995 3.0345885097032106 1.041049279283031 3.0345885097032106 2.5861350780639176 -2.1313243189486304 1.041049279283031 -2.1313243189486304 5.691146426606529" pbc="T T T"
C        9.51656000      10.07750000      11.02416000      -0.37000000        9      -2.97396371       1.47215165      -1.02444547
C       10.34994000      10.68908000       9.94688000      -0.37000000        9       1.43800151      -0.26474904       0.33229182
O       10.14334000       9.87448000       8.80830000      -0.46000000        9      -0.28048628       1.87067484      -2.00412718
C        9.16416000       9.05680000       9.06160000       0.92000000        9      -1.79208273      -4.98330858      -3.55151056
O        8.69408000       8.24594000       8.21746000      -0.60000000        9       0.91921822       2.42867251       2.29958963
O        8.92342000       8.99480000      10.35788000      -0.47000000        9      -1.76994339      -1.15866875       0.67178509
H        8.67708000      10.68186000      11.43354000       0.30000000        9       0.49766330       0.16961257      -0.12473779
H       10.04132000       9.65990000      11.78252000       0.38000000        9       1.95067169      -0.94954905       2.72712026
H       11.32290000      10.30586000      10.11310000       0.35000000        9       1.95144863       1.15866170       0.94647502
H       10.24238000      11.75406000       9.77916000       0.33000000        9       0.05946276       0.25650216      -0.27243085
10
Lattice="20.0 0.0 0.0 0.0 20.0 0.0 0.0 0.0 20.0" Properties=species:S:1:pos:R:3:initial_charges:R:1:molID:I:1:forces:R:3 uid=a4fdb1bbe6c68dc2a71091ccaef6b3b9 mID=10 energy=-1852.6161044414998 virial="7.973056286290381 0.40968467942013786 3.0908611203098104 0.40968467942013786 13.386378660853403 -2.3104321206757223 3.0908611203098104 -2.3104321206757223 -1.4530020988272727" pbc="T T T"
C        9.43840000       8.92772000      10.16608000      -0.34000000       10       0.93529867      -5.78997226       2.46385609
C       10.81552000       9.44944000       9.87320000      -0.28000000       10       2.27649327      -0.66878294       0.06246108
O       10.47420000      10.62636000       9.28080000      -0.46000000       10       1.68246466       2.91448907      -0.50869945
C        9.18736000      10.73586000       9.21362000       0.93000000       10      -2.03088353      10.95655150      -3.70728924
O        8.68702000      11.85756000       8.81338000      -0.63000000       10       1.12648092      -3.99931421       1.00312576
O        8.54368000       9.75372000       9.62108000      -0.45000000       10      -4.32562574      -0.86669598       1.03819661
H        9.10770000       8.44730000      11.18662000       0.27000000       10       0.86006442       1.43981687      -1.38855304
H        9.43910000       8.14244000       9.48780000       0.37000000       10      -0.46405440      -2.87533088      -0.84414580
H       11.45632000       9.05988000       8.97696000       0.27000000       10      -0.72017795      -1.05103475       2.12879131
H       11.35462000       9.62390000      10.81350000       0.32000000       10       0.65992968      -0.05973639      -0.24775332
10
Lattice="20.0 0.0 0.0 0.0 20.0 0.0 0.0 0.0 20.0" Properties=species:S:1:pos:R:3:initial_charges:R:1:molID:I:1:forces:R:3 uid=a4fdb1bbe6c68dc2a71091ccaef6b3b9 mID=11 energy=-1853.4739098089456 virial="8.961345702379852 -1.679001110902996 1.3827596609068906 -1.679001110902996 2.9358623588080666 -1.6668025280723053 1.3827596609068906 -1.6668025280723053 7.891285131405044" pbc="T T T"
C       10.66138000       9.06546000      10.06208000      -0.37000000       11      -0.15540681       0.76946377       1.81750670
C        9.23894000       9.32794000      10.55300000      -0.36000000       11       0.36524615      -5.96756033      -3.86394156
O        8.73138000      10.21948000       9.67000000      -0.48000000       11      -0.93269260       1.52131286      -0.60784063
C        9.81262000      10.85956000       9.13560000       0.96000000       11      -4.54444017       5.03260258      -3.08747696
O        9.68934000      11.89470000       8.48626000      -0.61000000       11       0.15146013      -1.08842440       0.79022898
O       10.88428000      10.26052000       9.32346000      -0.47000000       11       5.20140432      -2.81364991       0.40215506
H       10.91258000       8.10530000       9.63518000       0.32000000       11      -0.41414834      -0.10319967      -1.45782669
H       11.26862000       9.03976000      10.92050000       0.35000000       11       1.45883115       0.48707232       1.32552258
H        9.03386000       9.47272000      11.51374000       0.38000000       11      -0.35499208       1.43260631       4.36066998
H        8.83994000       8.28942000      10.34274000       0.28000000       11      -0.77527176       0.72976646       0.32099257
10
Lattice="20.0 0.0 0.0 0.0 20.0 0.0 0.0 0.0 20.0" Properties=species:S:1:pos:R:3:initial_charges:R:1:molID:I:1:forces:R:3 uid=a4fdb1bbe6c68dc2a71091ccaef6b3b9 mID=12 energy=-1853.3948327892917 virial="5.073415316487645 -2.7390728418255046 1.3395798704766666 -2.7390728418255046 14.880492255201462 3.4328604499360114 1.3395798704766666 3.4328604499360114 6.203742525517967" pbc="T T T"
C       10.00126000       9.17800000      11.19026000      -0.31000000       12      -0.72646123       1.32984862      -0.64352263
C       10.00316000      10.62628000      10.70502000      -0.37000000       12       0.50313541      -0.55383586       1.26392720
O        9.52814000      10.52900000       9.36770000      -0.48000000       12      -2.31789232       6.32763124       1.44476980
C        9.62656000       9.33326000       9.03026000       1.00000000       12      -0.97105229      -2.82247414      -3.82271080
O        9.19408000       8.83832000       8.02854000      -0.62000000       12      -0.34999869      -0.38563762      -1.26402895
O       10.31800000       8.71990000       9.90366000      -0.51000000       12       3.42092574      -6.10278065       1.93296481
H        8.97198000       8.84092000      11.33080000       0.29000000       12      -0.19943025      -0.24318076       0.97891682
H       10.72984000       8.89868000      11.97146000       0.33000000       12      -0.26770669       0.04182266      -0.40589480
H       11.02802000      10.81674000      10.57308000       0.33000000       12       1.72887381       1.14260868       0.33484880
H        9.49596000      11.28010000      11.36316000       0.34000000       12      -0.82039351       1.26597784       0.18070975
10
Lattice="20.0 0.0 0.0 0.0 20.0 0.0 0.0 0.0 20.0" Properties=species:S:1:pos:R:3:initial_charges:R:1:molID:I:1:forces:R:3 uid=a4fdb1bbe6c68dc2a71091ccaef6b3b9 mID=13 energy=-1854.2289057355686 virial="2.805778886298395 0.6318378922939337 -0.8614493511931703 0.6318378922939337 2.9821967143525967 -0.2375661697237473 -0.8614493511931703 -0.2375661697237473 1.8598557689016424" pbc="T T T"
C        8.88096000      10.63258000       9.41544000      -0.35000000       13      -1.81464002      -2.45921365      -0.12902603
C        8.82538000       9.34764000      10.28492000      -0.31000000       13       0.53550947       0.18481408      -0.68323847
O       10.21326000       9.02580000      10.33922000      -0.47000000       13      -0.44235193      -1.70887105       1.72141912
C       10.88434000       9.61052000       9.38722000       0.94000000       13       1.67107707       2.29049600       0.59749308
O       12.08722000       9.65994000       9.39944000      -0.58000000       13       0.16261177      -0.54413125      -1.22890914
O       10.06762000      10.45124000       8.66412000      -0.49000000       13      -0.20705151       0.01322032      -0.89555212
H        8.94152000      11.46114000      10.02844000       0.34000000       13       0.43000054       2.24797622       1.30576664
H        7.91276000      10.67842000       8.87052000       0.30000000       13       0.78276044       0.16147162      -0.53134586
H        8.40098000       8.53886000       9.68458000       0.30000000       13      -0.78719642      -0.18858628       0.38935853
H        8.49502000       9.43248000      11.33586000       0.32000000       13      -0.33070942       0.00284399      -0.54596575
10
Lattice="20.0 0.0 0.0 0.0 20.0 0.0 0.0 0.0 20.0" Properties=species:S:1:pos:R:3:initial_charges:R:1:molID:I:1:forces:R:3 uid=a4fdb1bbe6c68dc2a71091ccaef6b3b9 mID=14 energy=-1852.9034890726548 virial="9.698611226982205 1.6766777226422585 -3.0625583614419587 1.6766777226422585 6.952395526828077 -1.705503003368683 -3.0625583614419587 -1.705503003368683 9.276573906314843" pbc="T T T"
C        9.48642000       9.42648000       9.78740000      -0.43000000       14       0.39339580       2.59896210      -1.96134253
C       10.71502000       9.69770000       8.95690000      -0.33000000       14      -2.58185746      -1.74654227      -1.15183755
O       11.40130000      10.54270000       9.76992000      -0.47000000       14       5.43848621       0.22104516      -2.47163175
C       10.90364000      10.66312000      10.92870000       0.93000000       14      -0.44862022       5.30696199       5.84414833
O       11.28324000      11.45294000      11.85388000      -0.60000000       14      -0.47398033      -3.07372749      -2.83204194
O        9.69516000      10.14998000      10.90964000      -0.48000000       14      -1.89353705       1.37153087       3.47510340
H        9.41880000       8.54706000      10.16886000       0.41000000       14      -0.42554347      -6.63973895       1.46422818
H        8.59870000       9.63636000       9.28302000       0.34000000       14      -1.87731860       0.85677080      -0.76742146
H       10.33536000      10.27116000       8.14612000       0.33000000       14       0.39050331       0.39283876      -1.50171202
H       11.01372000       8.67082000       8.67088000       0.30000000       14       1.47847180       0.71187901      -0.09750265
10
Lattice="20.0 0.0 0.0 0.0 20.0 0.0 0.0 0.0 20.0" Properties=species:S:1:pos:R:3:initial_charges:R:1:molID:I:1:forces:R:3 uid=a4fdb1bbe6c68dc2a71091ccaef6b3b9 mID=15 energy=-1853.5612666650431 virial="3.3106824119512117 1.0441736096993075 0.2745798207041725 1.0441736096993075 7.446939771736773 0.7107785419080959 0.2745798207041725 0.7107785419080959 6.502884665117033" pbc="T T T"
C       10.01434000       9.12370000       9.89922000      -0.34000000       15       2.61660050      -2.81732709       0.53498096
C       10.31952000      10.18866000      10.86752000      -0.31000000       15       1.15489086      -0.74020101       1.99491582
O       10.23438000      11.28226000       9.95766000      -0.48000000       15       2.99579175       2.12088434       2.62598783
C        9.33952000      10.97860000       9.08332000       0.95000000       15      -1.89335065       2.46783395      -3.95143821
O        8.71896000      11.81308000       8.44328000      -0.59000000       15       0.25407591      -0.99438556       0.52170341
O        9.34972000       9.66930000       8.85806000      -0.47000000       15      -2.45871199       0.09853755      -1.75687628
H        9.55766000       8.18692000      10.13488000       0.34000000       15      -0.53875208      -0.64258303       0.97183464
H       11.02210000       8.88282000       9.57298000       0.30000000       15       0.58353998      -0.67677575      -0.67352609
H       11.28104000       9.91702000      11.52196000       0.27000000       15      -1.39299656       1.26786247      -1.79291378
H        9.56442000      10.43166000      11.55672000       0.33000000       15      -1.32109774      -0.08386587       1.52535170
10
Lattice="20.0 0.0 0.0 0.0 20.0 0.0 0.0 0.0 20.0" Properties=species:S:1:pos:R:3:initial_charges:R:1:molID:I:1:forces:R:3 uid=a4fdb1bbe6c68dc2a71091ccaef6b3b9 mID=16 energy=-1852.9048564165482 virial="20.310057006576425 -2.0994126638324637 -5.97658690710848 -2.0994126638324637 10.493582906752758 -5.056192994459648 -5.97658690710848 -5.056192994459648 9.353698916239212" pbc="T T T"
C       10.77236000      10.94520000       9.60228000      -0.36000000       16       0.68677415       0.37065769       1.24809570
C        9.47442000      10.94490000      10.26940000      -0.32000000       16      -2.28275475       1.41642082      -1.87955104
O        9.39298000       9.69604000      10.79956000      -0.50000000       16      -7.21737209       1.13655763       2.25649341
C       10.52806000       9.17372000      10.92930000       1.03000000       16      -1.88650380      -4.28819267       1.51709519
O       10.66746000       8.10600000      11.40400000      -0.64000000       16       1.30172087      -2.95941196       2.30664345
O       11.28614000       9.75880000      10.18278000      -0.50000000       16       9.28820233       3.88761521      -4.62116396
H       11.27572000      11.89400000       9.78054000       0.31000000       16       0.95457752      -0.24386080       0.20250846
H       10.62576000      10.80924000       8.59600000       0.36000000       16       0.29062377      -0.55313640      -2.82388781
H        8.71384000      11.00844000       9.47090000       0.30000000       16      -0.41579005       0.51550681       0.64000197
H        9.44806000      11.74518000      10.96796000       0.31000000       16      -0.71946796       0.71784368       1.15374464
10
Lattice="20.0 0.0 0.0 0.0 20.0 0.0 0.0 0.0 20.0" Properties=species:S:1:pos:R:3:initial_charges:R:1:molID:I:1:forces:R:3 uid=a4fdb1bbe6c68dc2a71091ccaef6b3b9 mID=17 energy=-1852.4591103561552 virial="8.957157076130345 7.628236146250393 -1.892656059886683 7.628236146250393 16.869749647183003 0.46153338353542706 -1.892656059886683 0.46153338353542706 12.926040510543674" pbc="T T T"
C        9.96348000      10.55076000      10.68312000      -0.36000000       17       0.15865800      -0.26594259       1.68689109
C       10.28138000      11.03334000       9.25284000      -0.38000000       17       0.25855798       0.51554127       2.26093275
O        9.74574000       9.98962000       8.55174000      -0.48000000       17       6.96965991       6.01170246      -8.37824963
C        9.02440000       9.28150000       9.16232000       1.04000000       17      -2.87291110      -7.11174616       1.83941500
O        8.70296000       8.25518000       8.67736000      -0.66000000       17      -3.27094359      -3.73698558      -1.36607741
O        9.03404000       9.50898000      10.40464000      -0.49000000       17      -2.05661837       1.21565449       5.16414669