15
Lattice="20.0 0.0 0.0 0.0 20.0 0.0 0.0 0.0 20.0" Properties=species:S:1:pos:R:3:initial_charges:R:1:molID:I:1:forces:R:3 uid=af7bacdd9d63b38e3413f80dbecf66bf mID=0 energy=-2075.1412343003167 virial="16.01335393584337 0.2981409069657741 2.391547951658707 0.2981409069657741 8.898394012802168 0.3320312889276247 2.391547951658707 0.3320312889276247 8.078144091647355" pbc="T T T"
C        7.57888000       9.84636000       8.44034000      -0.87000000        0      -0.67528667       0.89627953       2.33447098
C        8.98890000       9.56040000       8.65918000      -0.32000000        0      -1.00099491      -2.15499618      -1.89051737
O        9.22952000      10.15358000       9.84718000      -0.48000000        0      -1.64506362       4.88964125       0.25918084
C       10.42556000      10.07938000      10.29318000       0.95000000        0       0.88777804      -5.03113362       2.43881905
O       10.83644000       8.92334000      10.35512000      -0.63000000        0       2.66195333      -0.20408281      -0.49825949
O       10.85968000      11.05696000      11.02786000      -0.48000000        0      -0.00174688       2.88326718      -0.49383179
C       12.25188000      11.03214000      11.30980000      -0.64000000        0      -1.53893313      -2.27738616       3.69522890
H        7.14980000       9.39036000       7.62180000       0.30000000        0      -1.24412285      -1.09044550      -1.69090786
H        7.29724000      10.88424000       8.60008000       0.28000000        0       0.34335343       0.68144474      -0.90319354
H        7.29872000       9.51520000       9.41420000       0.30000000        0      -2.00455182      -1.15662285       0.66770616
H        9.46258000       9.81674000       7.76390000       0.31000000        0       2.26133343       1.49047772      -1.10908054
H        9.18888000       8.49454000       8.73358000       0.30000000        0      -0.18281030      -0.62327486       0.14956595
H       12.85020000      11.50546000      10.64968000       0.35000000        0       1.64807170       2.30190451      -2.28702569
H       12.52966000      10.00330000      11.29972000       0.33000000        0       0.47872725      -1.22965426      -0.16026091
H       12.37648000      11.29064000      12.37820000       0.30000000        0       0.01228296       0.62457132      -0.51189469
15
Lattice="20.0 0.0 0.0 0.0 20.0 0.0 0.0 0.0 20.0" Properties=species:S:1:pos:R:3:initial_charges:R:1:molID:I:1:forces:R:3 uid=af7bacdd9d63b38e3413f80dbecf66bf mID=1 energy=-2075.8114930734087 virial="16.810237554202672 -6.160740616269491 1.5932482643782722 -6.160740616269491 13.03168306025953 1.8796952589230878 1.5932482643782722 1.8796952589230878 3.1373048992202293" pbc="T T T"
C       10.91808000       7.24508000       9.51416000      -0.86000000        1       2.39496255       0.45171809       0.67245233
C        9.79062000       7.97294000      10.12186000      -0.28000000        1      -0.93472318      -0.55396145      -1.06366748
O       10.21946000       9.32450000      10.04990000      -0.50000000        1       4.01663693      -1.99415143       0.68814664
C        9.42972000      10.29728000       9.99868000       1.01000000        1      -1.58502313       0.54206880       0.05159455
O        8.27910000      10.18248000       9.81482000      -0.68000000        1      -5.64891119      -0.34234335      -0.99702738
O        9.98716000      11.42272000      10.19906000      -0.50000000        1       6.44293313      -0.86595023       0.11927055
C        9.37104000      12.58046000      10.10054000      -0.54000000        1      -0.82266658       3.76940217       2.04274373
H       10.66238000       6.50406000       8.82648000       0.30000000        1      -0.51230749      -1.48186193      -1.08779587
H       11.72090000       6.91210000      10.16748000       0.28000000        1      -0.19379418      -0.67463124       0.74812287
H       11.51190000       7.99492000       9.01440000       0.31000000        1       0.05882287       0.41072654      -1.01031848
H        9.64204000       7.72726000      11.17352000       0.30000000        1      -0.57962022      -0.07816175       0.09858456
H        8.93500000       7.72184000       9.41930000       0.28000000        1       0.12475077       0.88146392       1.26239148
H        8.82658000      12.59434000      11.05510000       0.28000000        1      -0.51373040       1.32571387       0.02659610
H        8.68300000      12.60096000       9.33060000       0.33000000        1      -1.78920123       0.08270999      -1.92986715
H       10.05542000      13.49594000       9.97602000       0.27000000        1      -0.45811862      -1.47274200       0.37876355
15
Lattice="20.0 0.0 0.0 0.0 20.0 0.0 0.0 0.0 20.0" Properties=species:S:1:pos:R:3:initial_charges:R:1:molID:I:1:forces:R:3 uid=af7bacdd9d63b38e3413f80dbecf66bf mID=2 energy=-2075.381046370104 virial="3.4742353440326763 1.2237717178025969 -1.879302955000128 1.2237717178025969 6.7600908987040045 2.1822173009877552 -1.879302955000128 2.1822173009877552 3.91184688325715" pbc="T T T"
C       10.85140000      12.14376000       9.10844000      -0.83000000        2       0.65038204      -0.93814207      -3.53251230
C        9.35446000      12.14638000       9.22730000      -0.36000000        2       2.03550556      -2.43978285       1.95654773
O        9.24314000      10.68642000       9.19252000      -0.48000000        2      -2.16420239       0.47017069      -4.36220322
C        9.01824000       9.90470000      10.19032000       0.94000000        2       1.66594634       2.83422187       3.53437482
O        8.73744000      10.30856000      11.31346000      -0.65000000        2      -1.52571236      -0.32674910       0.24268629
O        9.71758000       8.83040000       9.96012000      -0.48000000        2       0.27256103      -4.32500284      -0.93439151
C        9.75888000       7.82952000      10.99450000      -0.59000000        2       1.05271269       1.89081174       3.05584685
H       11.30424000      11.37140000       9.72480000       0.30000000        2      -0.26832423      -0.64933608      -0.04786604
H       11.32934000      12.94756000       9.48776000       0.34000000        2       1.26655396       3.57725789       1.19354471
H       11.26360000      12.05434000       8.03420000       0.24000000        2      -0.68547443      -0.19832078       1.32096355
H        8.67066000      12.69908000       8.62376000       0.34000000        2      -0.35380645       0.06529819      -0.98088934
H        9.23606000      12.35542000      10.25442000       0.33000000        2      -1.02105646       0.83767307       1.50654979
H       10.76694000       7.45894000      11.17256000       0.32000000        2       0.39418815      -0.60118435      -1.39098870
H        9.00766000       7.05244000      11.14778000       0.30000000        2      -0.37792759       0.12644214      -0.95795261
H        9.79634000       8.42108000      11.96580000       0.28000000        2      -0.94135584      -0.32335754      -0.60370001
15
Lattice="20.0 0.0 0.0 0.0 20.0 0.0 0.0 0.0 20.0" Properties=species:S:1:pos:R:3:initial_charges:R:1:molID:I:1:forces:R:3 uid=af7bacdd9d63b38e3413f80dbecf66bf mID=3 energy=-2075.232821151729 virial="17.396991439577086 1.2198100285057016 -8.938920944487972 1.2198100285057016 8.8644843789409 3.4412810765429422 -8.938920944487972 3.4412810765429422 11.298335062750661" pbc="T T T"
C        9.18320000      12.66920000      10.80866000      -0.77000000        3       0.20414604       1.09916691       1.26581924
C        9.41440000      11.27170000      10.46136000      -0.33000000        3      -1.14205875       0.53863529       0.52595440
O       10.30264000      11.12396000       9.46738000      -0.47000000        3       2.25609369       1.78851343      -0.89436225
C       10.58216000       9.94126000       9.08428000       1.00000000        3       2.13956740      -0.92826965      -1.96431763
O       11.45446000       9.72486000       8.32460000      -0.67000000        3       4.42161117       0.68866862      -3.43794571
O        9.92608000       8.92890000       9.46030000      -0.53000000        3      -5.05307981      -3.12502936       4.13651908
C       10.54326000       7.63100000       9.43128000      -0.64000000        3      -1.14212289       0.78277437      -3.12971698
H       10.08674000      13.19076000      11.16856000       0.27000000        3      -0.28148996       0.24159993      -0.22594276
H        8.59228000      12.38348000      11.67540000       0.28000000        3      -0.76795526       1.30028259       0.69979130
H        8.56732000      13.21582000      10.04718000       0.26000000        3       0.72507774      -0.21251068       0.63753258
H        8.54554000      11.12660000       9.94716000       0.34000000        3      -3.44725670      -1.62078922      -0.67970717
H        9.51570000      10.56198000      11.26154000       0.28000000        3       0.36837796      -0.30236218       0.71540941
H       10.91544000       7.54076000       8.42184000       0.32000000        3       0.95137136      -0.09460535      -0.39721181
H        9.89224000       6.78416000       9.47048000       0.33000000        3      -1.45349376      -0.05188913       0.74860476
H       11.27782000       7.56774000      10.13584000       0.34000000        3       2.22121179      -0.10419555       1.99956354
15
Lattice="20.0 0.0 0.0 0.0 20.0 0.0 0.0 0.0 20.0" Properties=species:S:1:pos:R:3:initial_charges:R:1:molID:I:1:forces:R:3 uid=af7bacdd9d63b38e3413f80dbecf66bf mID=4 energy=-2075.2454216899964 virial="2.5708253445664426 -2.8222109483630526 0.6254826828979114 -2.8222109483630526 11.856023989268333 2.7698301093365054 0.6254826828979114 2.7698301093365054 7.502108364715945" pbc="T T T"
C        8.65250000      12.44560000      10.56724000      -0.94000000        4       2.26239884      -2.63717006       3.43562243
C        9.35722000      11.47762000       9.76642000      -0.29000000        4       3.70687269       0.18032416      -2.56258677
O       10.12872000      10.42656000      10.37798000      -0.48000000        4       1.00987741      -0.37468436       1.72845141
C       10.19306000       9.22264000       9.80584000       0.90000000        4      -5.90351736       0.39596230      -2.53353505
O        9.18810000       8.78968000       9.13198000      -0.65000000        4       2.84675621       0.50979878       1.50314752
O       11.29208000       8.57818000       9.99622000      -0.47000000        4       0.61469104       4.65687632       3.55630038
C       11.26126000       7.26592000       9.76934000      -0.57000000        4       2.49129451      -2.08277428      -2.41059907
H        7.98404000      12.02320000      11.27962000       0.30000000        4      -0.79065613       0.02562776       0.76126454
H        8.33416000      13.20510000      10.04270000       0.39000000        4      -2.97387878       3.48884310      -3.59408632
H        9.45476000      13.03890000      10.96254000       0.31000000        4       0.59238889       0.10943206       1.94938383
H       10.25514000      12.02700000       9.34418000       0.26000000        4      -0.88608738       0.11544482      -0.18559808
H        8.89972000      11.10048000       8.90470000       0.33000000        4      -1.42151224      -1.00090086      -1.12626069
H       11.57698000       7.41586000       8.72038000       0.29000000        4       0.09176858      -2.47506609      -0.43174338
H       10.32090000       6.82056000       9.86152000       0.33000000        4      -1.71886634      -0.74286184       0.09810036
H       12.01596000       6.79490000      10.40754000       0.31000000        4       0.07847007      -0.16885180      -0.18786112
15
Lattice="20.0 0.0 0.0 0.0 20.0 0.0 0.0 0.0 20.0" Properties=species:S:1:pos:R:3:initial_charges:R:1:molID:I:1:forces:R:3 uid=af7bacdd9d63b38e3413f80dbecf66bf mID=5 energy=-2075.370098066036 virial="7.539288740578578 -5.745380510969944 -2.0395384744734404 -5.745380510969944 13.29792096597636 -0.6846044626605631 -2.0395384744734404 -0.6846044626605631 7.580141005083897" pbc="T T T"
C       10.51496000      12.76144000       9.70510000      -0.86000000        5       0.08785735      -2.54148184       1.55538162
C        9.59548000      11.52944000      10.10938000      -0.32000000        5       1.29395880       1.41747036       0.18070889
O       10.31790000      10.29180000       9.93042000      -0.48000000        5       2.12184397       4.62306702      -1.75013829
C        9.85580000       9.29832000      10.56758000       1.02000000        5      -4.89237808       3.27720409       1.18257072
O        8.84240000       9.31614000      11.19100000      -0.67000000        5      -2.95108806       0.60643437       2.97555659
O       10.35738000       8.28078000      10.17266000      -0.51000000        5       5.94659209      -8.26827189      -2.74392430
C        9.59308000       7.29446000       9.55910000      -0.58000000        5      -1.49989515      -2.69702179       1.64572003
H       11.41056000      12.43308000       9.15302000       0.28000000        5      -0.19877203       0.27948055       0.24060481
H       10.70758000      13.34454000      10.61210000       0.28000000        5       0.85902388      -0.47190292       0.30687780
H        9.97834000      13.47808000       9.21340000       0.33000000        5      -1.61496605       1.67833329      -2.28746220
H        8.58944000      11.44908000       9.70250000       0.30000000        5      -0.01404002      -0.01341058      -0.87784704
H        9.39230000      11.68404000      11.14716000       0.31000000        5      -0.10903436      -0.26849772       1.11217346
H        8.84864000       6.71898000      10.23334000       0.26000000        5       1.18119127       0.95340461      -0.27126339
H       10.16840000       6.52192000       9.06014000       0.32000000        5       0.91862103       0.04361160       0.22071825
H        8.97194000       7.66708000       8.80898000       0.32000000        5      -1.12890465       1.38158084      -1.48967693
15
Lattice="20.0 0.0 0.0 0.0 20.0 0.0 0.0 0.0 20.0" Properties=species:S:1:pos:R:3:initial_charges:R:1:molID:I:1:forces:R:3 uid=af7bacdd9d63b38e3413f80dbecf66bf mID=6 energy=-2075.395660699462 virial="13.90392993243687 6.508078040646795 -3.3110426796432595 6.508078040646795 5.565956892049005 3.256578504456599 -3.3110426796432595 3.256578504456599 2.2477494643360627" pbc="T T T"
C        8.01290000       8.53174000      10.42870000      -0.75000000        6      -2.02164088      -1.43978126      -1.35474859
C        8.44674000       9.87526000      10.78536000      -0.26000000        6       0.72715605       0.01831729       2.36104118
O        9.43262000      10.07826000       9.77694000      -0.48000000        6      -6.85687419       0.09132158      -2.42877514
C       10.58524000      10.37046000      10.04264000       1.00000000        6       2.14409203       0.11830419       7.90526045
O       10.96940000      10.47968000      11.21342000      -0.69000000        6       0.86362548       0.81642508       0.32083861
O       11.29468000      10.36892000       9.04194000      -0.49000000        6       4.18021955       1.04077461      -6.47080939
C       12.37900000      11.31454000       9.15740000      -0.56000000        6       1.29925948      -0.21225363      -0.16433591
H        6.90174000       8.48378000      10.43698000       0.26000000        6       0.27365809      -0.64767414       1.11188379
H        8.59728000       7.81826000      11.08780000       0.26000000        6      -0.95464734      -0.04656805      -1.44548115
H        8.06534000       8.52436000       9.27812000       0.26000000        6       0.75649295      -0.94962445       1.41734969
H        8.93024000       9.82286000      11.82648000       0.28000000        6      -0.39764803       0.65117099      -1.38698643
H        7.61306000      10.59606000      10.82338000       0.29000000        6       0.60257412       0.42254427      -0.58726007
H       11.96918000      12.18174000       9.63066000       0.31000000        6      -0.18795385       0.85082348       0.54818204
H       12.81124000      11.68718000       8.17352000       0.28000000        6      -0.58169241      -1.20379874       0.78172908
H       13.09826000      10.84770000       9.86452000       0.30000000        6       0.15335894       0.49001880      -0.60788820
15
Lattice="20.0 0.0 0.0 0.0 20.0 0.0 0.0 0.0 20.0" Properties=species:S:1:pos:R:3:initial_charges:R:1:molID:I:1:forces:R:3 uid=af7bacdd9d63b38e3413f80dbecf66bf mID=7 energy=-2075.117865778979 virial="10.660675933998826 0.14701240670280613 -6.814853337443837 0.14701240670280613 2.367387163881904 7.3031611406042085 -6.814853337443837 7.3031611406042085 15.024197317455732" pbc="T T T"
C       12.22170000       9.36842000       8.97932000      -0.85000000        7      -3.10234473       0.82746272      -6.09613319
C       11.18242000      10.47490000       9.01760000      -0.24000000        7      -1.06191974      -1.58365068      -1.50485407
O       10.66808000      10.30730000      10.25836000      -0.50000000        7      -2.06619972       2.00056573       4.47470356
C        9.53218000       9.60136000      10.49490000       0.95000000        7       4.66471414      -2.47678164      -4.79324802
O        9.20730000       8.63000000       9.85124000      -0.65000000        7      -0.47920411      -0.67069932      -2.21454102
O        9.01516000       9.86896000      11.56936000      -0.47000000        7      -1.97958730       3.16031850       4.11294804
C        7.61224000       9.64190000      11.50088000      -0.63000000        7      -0.45601136       0.18395693       3.46345034
H       12.37724000       9.42620000       7.82408000       0.21000000        7       1.00394892      -1.13615719       1.73838482
H       11.79832000       8.46062000       9.36036000       0.30000000        7      -0.60464688      -0.74693668      -0.41275236
H       12.95618000       9.60150000       9.58776000       0.35000000        7       4.38250141       1.34928915       2.50866036
H       10.31180000      10.22808000       8.36104000       0.25000000        7       0.74860872       0.13299227      -0.55602985
H       11.44198000      11.53936000       8.83670000       0.29000000        7       0.46081698      -0.48283830       0.20770080
H        7.53240000       8.80372000      12.17592000       0.32000000        7      -1.05405913      -0.56165995       0.18341919
H        7.04380000       9.51342000      10.61674000       0.33000000        7       0.38108133      -0.31598270      -1.57961920
H        7.27368000      10.54100000      11.99134000       0.32000000        7      -0.83770852       0.32013116       0.46790061
15
Lattice="20.0 0.0 0.0 0.0 20.0 0.0 0.0 0.0 20.0" Properties=species:S:1:pos:R:3:initial_charges:R:1:molID:I:1:forces:R:3 uid=af7bacdd9d63b38e3413f80dbecf66bf mID=8 energy=-2075.169549075913 virial="5.261888549132536 -1.821461962166912 -6.9812712573447735 -1.821461962166912 12.711884881272912 0.17844352308270506 -6.9812712573447735 0.17844352308270506 17.248542764440643" pbc="T T T"
C       10.75272000      12.69706000       9.39892000      -0.87000000        8       2.63400183       1.23786688      -0.40290665
C       10.27084000      11.36088000       9.34948000      -0.23000000        8       0.97950525      -2.51757828      -5.01701378
O        9.84962000      10.88526000      10.50308000      -0.47000000        8      -0.27338446      -0.11501480       4.04172199
C        9.43792000       9.64846000      10.61860000       0.99000000        8      -1.58019017       0.12865591       1.73547450
O        8.70584000       9.30280000      11.48272000      -0.65000000        8      -2.24638049       0.12531145       3.54105186
O        9.79042000       8.81494000       9.74574000      -0.52000000        8       2.65644461      -3.79539850      -4.72813743
C        8.91236000       7.62574000       9.46038000      -0.69000000        8      -3.59535250       7.44884636       2.22901380
H       10.20122000      13.24010000      10.07274000       0.34000000        8      -1.15217818       1.44038158       2.41760793
H       10.35952000      13.11180000       8.51728000       0.31000000        8       0.43424772       1.11018462      -1.86458588
H       11.85382000      12.85986000       9.55026000       0.25000000        8      -0.88283431      -0.10454430      -0.16753895
H       10.98458000      10.64252000       8.83964000       0.25000000        8      -0.09263233       0.58849837       0.48108776
H        9.43804000      11.32632000       8.63108000       0.25000000        8      -0.45737414       0.05209709      -0.15921338
H        9.24888000       6.75990000       9.22302000       0.41000000        8       3.68423539      -5.38655521      -1.30634225
H        8.36638000       8.05626000       8.64930000       0.32000000        8      -0.57259047      -0.15272612      -1.15859973
H        8.14618000       7.54862000      10.24354000       0.32000000        8       0.46448221      -0.06003504       0.35837021
15
Lattice="20.0 0.0 0.0 0.0 20.0 0.0 0.0 0.0 20.0" Properties=species:S:1:pos:R:3:initial_charges:R:1:molID:I:1:forces:R:3 uid=af7bacdd9d63b38e3413f80dbecf66bf mID=9 energy=-2075.8271011403094 virial="11.112779391350069 -1.795786793472505 0.971647172762714 -1.795786793472505 2.2194993202398328 -0.9800634195114833 0.971647172762714 -0.9800634195114833 9.959267749621135" pbc="T T T"
C        8.08550000      11.31274000      11.86336000      -0.88000000        9      -0.43360311      -0.96707152      -0.73960031
C        9.14736000      10.37968000      11.43244000      -0.25000000        9       2.16207029       0.11396949       1.31147170
O        9.17864000      10.01538000      10.02834000      -0.49000000        9      -1.41864877       1.15456982       0.14994058
C       10.35752000       9.49108000       9.74662000       0.96000000        9       0.83031404      -1.20654141       1.50193377
O       11.12052000       9.04064000      10.56780000      -0.65000000        9       0.98692248      -0.24686781       1.31216810
O       10.60230000       9.43090000       8.48498000      -0.49000000        9      -0.13943147       1.01673368      -2.34331585
C       11.94936000       9.03802000       8.07796000      -0.70000000        9      -2.99738368       1.48493093      -0.70329917
H        7.96522000      11.94836000      11.03296000       0.31000000        9      -0.61019725       1.34415187      -1.06208029
H        8.35860000      11.88802000      12.73302000       0.29000000        9       0.08151076      -0.01707974       0.52272140
H        7.26992000      10.69030000      11.97068000       0.31000000        9      -2.86550849      -0.53332498       0.75040052
H        9.27206000       9.41698000      12.02914000       0.27000000        9       0.02569780       1.38048572      -0.41147422
H        9.89068000      11.18160000      11.60728000       0.27000000        9       1.68268257      -1.51820461      -0.27347980
H       12.73006000       9.32946000       8.66070000       0.36000000        9       1.93575759       0.17893838       2.83386041
H       12.08540000       9.68678000       7.26696000       0.35000000        9       0.12649469       0.48085149      -2.14086375
H       11.80908000       8.05164000       7.83858000       0.35000000        9       0.63330259      -2.66553132      -0.70837310
15
Lattice="20.0 0.0 0.0 0.0 20.0 0.0 0.0 0.0 20.0" Properties=species:S:1:pos:R:3:initial_charges:R:1:molID:I:1:forces:R:3 uid=af7bacdd9d63b38e3413f80dbecf66bf mID=10 energy=-2074.1263636220083 virial="5.494888147865954 -1.3639864640815402 3.9992548642623698 -1.3639864640815402 16.330103586413507 9.49634194897297 3.9992548642623698 9.49634194897297 18.56842786158889" pbc="T T T"
C        8.47128000       8.83464000       8.54762000      -0.87000000       10      -1.24640239      -1.73029040       1.69832064
C        9.93836000       8.76762000       8.32074000      -0.30000000       10      -0.57525180      -2.53856842      -1.49505801
O       10.78072000       9.08032000       9.38694000      -0.47000000       10      -0.56363345      -9.66845064      -3.01281906
C       10.62260000      10.15768000       9.88030000       0.98000000       10       1.13511843       8.12220133      -4.65012463
O       10.54224000      11.15748000       9.14440000      -0.68000000       10      -2.26162149       1.15735993       0.61573436
O       11.17970000      10.14502000      10.97416000      -0.46000000       10       0.56375500       0.41505419       6.05020685
C       11.08250000      11.34720000      11.63772000      -0.66000000       10       3.57609366       1.29544788       2.81146540
H        7.97712000       9.56318000       7.99964000       0.32000000       10      -0.96146551       2.32735955      -0.26191684
H        8.14638000       8.64906000       9.58952000       0.27000000       10       0.24522489       1.13764515       0.17565461
H        7.91096000       7.96712000       8.19358000       0.30000000       10       0.56073542      -0.81669146      -0.80155545
H       10.11774000       9.40454000       7.44114000       0.30000000       10       0.76072439      -0.56572546      -0.07034321
H       10.06846000       7.65478000       8.28204000       0.29000000       10       0.81953683       0.80027025      -1.07620133
H       10.62238000      11.23096000      12.55884000       0.34000000       10      -2.07147384      -0.58497704       1.76072666
H       10.89572000      12.34522000      11.29668000       0.33000000       10      -0.59959212       0.05390870      -1.66636054
H       12.08904000      11.40968000      12.06820000       0.31000000       10       0.61824199       0.59546646      -0.07772946
15
Lattice="20.0 0.0 0.0 0.0 20.0 0.0 0.0 0.0 20.0" Properties=species:S:1:pos:R:3:initial_charges:R:1:molID:I:1:forces:R:3 uid=af7bacdd9d63b38e3413f80dbecf66bf mID=11 energy=-2075.1912084396486 virial="11.902998279694618 -1.3741836764449393 3.3498424113673178 -1.3741836764449393 6.152216933699071 2.633429953772703 3.3498424113673178 2.633429953772703 25.195107089969394" pbc="T T T"
C       10.85102000      10.16344000       7.54988000      -0.90000000       11      -3.30362455       0.74795414      -1.15202797
C       10.48292000       9.04776000       8.37866000      -0.32000000       11       0.72497830      -2.69902330       0.27519958
O       10.71012000       9.22194000       9.71030000      -0.48000000       11       1.37311555      -1.23139950       3.02767720
C        9.87854000       9.98840000      10.36838000       0.96000000       11       1.09100470       2.24947779      -5.04354545
O        9.18842000      10.80716000       9.83676000      -0.66000000       11      -3.87418658       0.86758260      -1.82829962
O       10.34222000      10.17514000      11.48310000      -0.48000000       11       3.53987368      -0.89931108       6.87053687
C        9.57478000      10.78280000      12.45044000      -0.59000000       11      -0.39328466       1.90300145       1.06316405
H        9.95560000      10.76656000       7.25742000       0.28000000       11       0.56867320      -0.35023467       0.04532556
H       11.31066000       9.76782000       6.72308000       0.32000000       11       1.46788246      -0.42898409      -2.43919285
H       11.43610000      10.77128000       8.11260000       0.34000000       11       2.31892960       2.09654405       1.38813016
H       11.08208000       8.13414000       8.32940000       0.31000000       11       0.25246902      -0.20739770      -1.50667280
H        9.49986000       8.73888000       8.38466000       0.32000000       11      -2.70684578      -0.70697660      -1.20721363
H        9.59244000      10.12566000      13.27692000       0.33000000       11       0.51078933      -0.44825786       1.63194422
H        8.56390000      10.73798000      12.15432000       0.32000000       11      -1.59725946       0.51182831      -0.62272075
H        9.83998000      11.86586000      12.71922000       0.27000000       11       0.02750519      -1.40482354      -0.50232459
15
Lattice="20.0 0.0 0.0 0.0 20.0 0.0 0.0 0.0 20.0" Properties=species:S:1:pos:R:3:initial_charges:R:1:molID:I:1:forces:R:3 uid=af7bacdd9d63b38e3413f80dbecf66bf mID=12 energy=-2075.2973401517424 virial="13.668173969120977 4.149238169830296 1.7650557979332722 4.149238169830296 4.983333393819831 -5.727953686812372 1.7650557979332722 -5.727953686812372 23.978790027053602" pbc="T T T"
C        9.56672000      10.68468000       7.29550000      -0.84000000       12       2.48764265      -1.46039786       0.02020085
C       10.08686000      10.89392000       8.66800000      -0.28000000       12      -0.96344455       0.82026557       0.98222072
O        9.57302000       9.87410000       9.53710000      -0.50000000       12      -4.00252905       2.47507311      -7.79123709
C       10.19318000       9.67618000      10.58508000       1.04000000       12       1.20841671       0.43646747      -1.83590709
O       11.32252000       9.90324000      10.68864000      -0.66000000       12       6.47283391       1.03041582       2.66366621
O        9.32418000       9.16328000      11.28200000      -0.48000000       12      -4.75082036      -3.73936079       4.15412429
C        9.56486000       9.03638000      12.58734000      -0.57000000       12       1.77945110       0.39716223       4.72888808
H        8.67748000      10.10798000       7.23932000       0.30000000       12      -1.12870451      -0.26470309      -0.03489143
H       10.41022000      10.08546000       6.89424000       0.26000000       12      -0.71494558       0.01338042      -0.91639111
H        9.55010000      11.62796000       6.82916000       0.30000000       12      -0.36760078       1.14246533      -1.11591625