1
Lattice="20.0 0.0 0.0 0.0 20.0 0.0 0.0 0.0 20.0" Properties=species:S:1:pos:R:3:initial_charges:R:1:molID:I:1:forces:R:3 uid=fe24d71c2b6ceb3eb5db0dbc1e2dea32 mID=14 energy=-196.27723586253632 virial="1.6021274404920405e-06 1.554312234475219e-14 1.554312234475219e-14 1.554312234475219e-14 1.6021274404920405e-06 1.554312234475219e-14 1.554312234475219e-14 1.554312234475219e-14 1.6021274404920405e-06" pbc="T T T"
Li      10.00000000      10.00000000      10.00000000       1.00000000       14       0.00000000       0.00000000       0.00000000
1
Lattice="20.0 0.0 0.0 0.0 20.0 0.0 0.0 0.0 20.0" Properties=species:S:1:pos:R:3:initial_charges:R:1:molID:I:1:forces:R:3 uid=f3ba8e13d88d880ade7a938f8141c945 mID=14 energy=-196.27723586253632 virial="1.6021274404920405e-06 1.554312234475219e-14 1.554312234475219e-14 1.554312234475219e-14 1.6021274404920405e-06 1.554312234475219e-14 1.554312234475219e-14 1.554312234475219e-14 1.6021274404920405e-06" pbc="T T T"
Li      10.00000000      10.00000000      10.00000000       1.00000000       14       0.00000000       0.00000000       0.00000000
1
Lattice="20.0 0.0 0.0 0.0 20.0 0.0 0.0 0.0 20.0" Properties=species:S:1:pos:R:3:initial_charges:R:1:molID:I:1:forces:R:3 uid=7d5b922eaf8fdcbe6f94abd712f9530e mID=14 energy=-196.27723586253632 virial="1.6021274404920405e-06 1.554312234475219e-14 1.554312234475219e-14 1.554312234475219e-14 1.6021274404920405e-06 1.554312234475219e-14 1.554312234475219e-14 1.554312234475219e-14 1.6021274404920405e-06" pbc="T T T"
Li      10.00000000      10.00000000      10.00000000       1.00000000       14       0.00000000       0.00000000       0.00000000
1
Lattice="20.0 0.0 0.0 0.0 20.0 0.0 0.0 0.0 20.0" Properties=species:S:1:pos:R:3:initial_charges:R:1:molID:I:1:forces:R:3 uid=4accdfe0cfba4a1c496c6fa1e6102ac6 mID=14 energy=-196.27723586253632 virial="1.6021274404920405e-06 1.554312234475219e-14 1.554312234475219e-14 1.554312234475219e-14 1.6021274404920405e-06 1.554312234475219e-14 1.554312234475219e-14 1.554312234475219e-14 1.6021274404920405e-06" pbc="T T T"
Li      10.00000000      10.00000000      10.00000000       1.00000000       14       0.00000000       0.00000000       0.00000000
1
Lattice="20.0 0.0 0.0 0.0 20.0 0.0 0.0 0.0 20.0" Properties=species:S:1:pos:R:3:initial_charges:R:1:molID:I:1:forces:R:3 uid=240a11c1a26d67a4ddc3c33c34a08bab mID=14 energy=-196.27723586253632 virial="1.6021274404920405e-06 1.554312234475219e-14 1.554312234475219e-14 1.554312234475219e-14 1.6021274404920405e-06 1.554312234475219e-14 1.554312234475219e-14 1.554312234475219e-14 1.6021274404920405e-06" pbc="T T T"
Li      10.00000000      10.00000000      10.00000000       1.00000000       14       0.00000000       0.00000000       0.00000000
1
Lattice="20.0 0.0 0.0 0.0 20.0 0.0 0.0 0.0 20.0" Properties=species:S:1:pos:R:3:initial_charges:R:1:molID:I:1:forces:R:3 uid=873408963b66ecd89f2b1ce2cdea2704 mID=14 energy=-196.27723586253632 virial="1.6021274404920405e-06 1.554312234475219e-14 1.554312234475219e-14 1.554312234475219e-14 1.6021274404920405e-06 1.554312234475219e-14 1.554312234475219e-14 1.554312234475219e-14 1.6021274404920405e-06" pbc="T T T"
Li      10.00000000      10.00000000      10.00000000       1.00000000       14       0.00000000       0.00000000       0.00000000
1
Lattice="20.0 0.0 0.0 0.0 20.0 0.0 0.0 0.0 20.0" Properties=species:S:1:pos:R:3:initial_charges:R:1:molID:I:1:forces:R:3 uid=e9a62115a0e7762ee9b68a93fff3c645 mID=14 energy=-196.27723586253632 virial="1.6021274404920405e-06 1.554312234475219e-14 1.554312234475219e-14 1.554312234475219e-14 1.6021274404920405e-06 1.554312234475219e-14 1.554312234475219e-14 1.554312234475219e-14 1.6021274404920405e-06" pbc="T T T"
Li      10.00000000      10.00000000      10.00000000       1.00000000       14       0.00000000       0.00000000       0.00000000
1
Lattice="20.0 0.0 0.0 0.0 20.0 0.0 0.0 0.0 20.0" Properties=species:S:1:pos:R:3:initial_charges:R:1:molID:I:1:forces:R:3 uid=f6ebea952552dc77beaa8b098a0921b2 mID=14 energy=-196.27723586253632 virial="1.6021274404920405e-06 1.554312234475219e-14 1.554312234475219e-14 1.554312234475219e-14 1.6021274404920405e-06 1.554312234475219e-14 1.554312234475219e-14 1.554312234475219e-14 1.6021274404920405e-06" pbc="T T T"
Li      10.00000000      10.00000000      10.00000000       1.00000000       14       0.00000000       0.00000000       0.00000000
1
Lattice="20.0 0.0 0.0 0.0 20.0 0.0 0.0 0.0 20.0" Properties=species:S:1:pos:R:3:initial_charges:R:1:molID:I:1:forces:R:3 uid=ee6afbf0e5edb73032add1c3bb8c895a mID=14 energy=-196.27723586253632 virial="1.6021274404920405e-06 1.554312234475219e-14 1.554312234475219e-14 1.554312234475219e-14 1.6021274404920405e-06 1.554312234475219e-14 1.554312234475219e-14 1.554312234475219e-14 1.6021274404920405e-06" pbc="T T T"
Li      10.00000000      10.00000000      10.00000000       1.00000000       14       0.00000000       0.00000000       0.00000000
1
Lattice="20.0 0.0 0.0 0.0 20.0 0.0 0.0 0.0 20.0" Properties=species:S:1:pos:R:3:initial_charges:R:1:molID:I:1:forces:R:3 uid=95e77c0840efc1897a2745ff0feae596 mID=14 energy=-196.27723586253632 virial="1.6021274404920405e-06 1.554312234475219e-14 1.554312234475219e-14 1.554312234475219e-14 1.6021274404920405e-06 1.554312234475219e-14 1.554312234475219e-14 1.554312234475219e-14 1.6021274404920405e-06" pbc="T T T"
Li      10.00000000      10.00000000      10.00000000       1.00000000       14       0.00000000       0.00000000       0.00000000
1
Lattice="20.0 0.0 0.0 0.0 20.0 0.0 0.0 0.0 20.0" Properties=species:S:1:pos:R:3:initial_charges:R:1:molID:I:1:forces:R:3 uid=97de9190c08668a05191d6a28f86f940 mID=14 energy=-196.27723586253632 virial="1.6021274404920405e-06 1.554312234475219e-14 1.554312234475219e-14 1.554312234475219e-14 1.6021274404920405e-06 1.554312234475219e-14 1.554312234475219e-14 1.554312234475219e-14 1.6021274404920405e-06" pbc="T T T"
Li      10.00000000      10.00000000      10.00000000       1.00000000       14       0.00000000       0.00000000       0.00000000
1
Lattice="20.0 0.0 0.0 0.0 20.0 0.0 0.0 0.0 20.0" Properties=species:S:1:pos:R:3:initial_charges:R:1:molID:I:1:forces:R:3 uid=97de9190c08668a05191d6a28f86f940 mID=15 energy=-196.27723586253632 virial="1.6021274404920405e-06 1.554312234475219e-14 1.554312234475219e-14 1.554312234475219e-14 1.6021274404920405e-06 1.554312234475219e-14 1.554312234475219e-14 1.554312234475219e-14 1.6021274404920405e-06" pbc="T T T"
Li      10.00000000      10.00000000      10.00000000       1.00000000       15       0.00000000       0.00000000       0.00000000
1
Lattice="20.0 0.0 0.0 0.0 20.0 0.0 0.0 0.0 20.0" Properties=species:S:1:pos:R:3:initial_charges:R:1:molID:I:1:forces:R:3 uid=97de9190c08668a05191d6a28f86f940 mID=16 energy=-196.27723586253632 virial="1.6021274404920405e-06 1.554312234475219e-14 1.554312234475219e-14 1.554312234475219e-14 1.6021274404920405e-06 1.554312234475219e-14 1.554312234475219e-14 1.554312234475219e-14 1.6021274404920405e-06" pbc="T T T"
Li      10.00000000      10.00000000      10.00000000       1.00000000       16       0.00000000       0.00000000       0.00000000
1
Lattice="20.0 0.0 0.0 0.0 20.0 0.0 0.0 0.0 20.0" Properties=species:S:1:pos:R:3:initial_charges:R:1:molID:I:1:forces:R:3 uid=597907a16dc98795aa8b2af0d974640c mID=14 energy=-196.27723586253632 virial="1.6021274404920405e-06 1.554312234475219e-14 1.554312234475219e-14 1.554312234475219e-14 1.6021274404920405e-06 1.554312234475219e-14 1.554312234475219e-14 1.554312234475219e-14 1.6021274404920405e-06" pbc="T T T"
Li      10.00000000      10.00000000      10.00000000       1.00000000       14       0.00000000       0.00000000       0.00000000
1
Lattice="20.0 0.0 0.0 0.0 20.0 0.0 0.0 0.0 20.0" Properties=species:S:1:pos:R:3:initial_charges:R:1:molID:I:1:forces:R:3 uid=597907a16dc98795aa8b2af0d974640c mID=15 energy=-196.27723586253632 virial="1.6021274404920405e-06 1.554312234475219e-14 1.554312234475219e-14 1.554312234475219e-14 1.6021274404920405e-06 1.554312234475219e-14 1.554312234475219e-14 1.554312234475219e-14 1.6021274404920405e-06" pbc="T T T"
Li      10.00000000      10.00000000      10.00000000       1.00000000       15       0.00000000       0.00000000       0.00000000
1
Lattice="20.0 0.0 0.0 0.0 20.0 0.0 0.0 0.0 20.0" Properties=species:S:1:pos:R:3:initial_charges:R:1:molID:I:1:forces:R:3 uid=597907a16dc98795aa8b2af0d974640c mID=16 energy=-196.27723586253632 virial="1.6021274404920405e-06 1.554312234475219e-14 1.554312234475219e-14 1.554312234475219e-14 1.6021274404920405e-06 1.554312234475219e-14 1.554312234475219e-14 1.554312234475219e-14 1.6021274404920405e-06" pbc="T T T"
Li      10.00000000      10.00000000      10.00000000       1.00000000       16       0.00000000       0.00000000       0.00000000
1
Lattice="20.0 0.0 0.0 0.0 20.0 0.0 0.0 0.0 20.0" Properties=species:S:1:pos:R:3:initial_charges:R:1:molID:I:1:forces:R:3 uid=be286e679fcdb10794d2f74e7294232c mID=14 energy=-196.27723586253632 virial="1.6021274404920405e-06 1.554312234475219e-14 1.554312234475219e-14 1.554312234475219e-14 1.6021274404920405e-06 1.554312234475219e-14 1.554312234475219e-14 1.554312234475219e-14 1.6021274404920405e-06" pbc="T T T"
Li      10.00000000      10.00000000      10.00000000       1.00000000       14       0.00000000       0.00000000       0.00000000
1
Lattice="20.0 0.0 0.0 0.0 20.0 0.0 0.0 0.0 20.0" Properties=species:S:1:pos:R:3:initial_charges:R:1:molID:I:1:forces:R:3 uid=be286e679fcdb10794d2f74e7294232c mID=15 energy=-196.27723586253632 virial="1.6021274404920405e-06 1.554312234475219e-14 1.554312234475219e-14 1.554312234475219e-14 1.6021274404920405e-06 1.554312234475219e-14 1.554312234475219e-14 1.554312234475219e-14 1.6021274404920405e-06" pbc="T T T"
Li      10.00000000      10.00000000      10.00000000       1.00000000       15       0.00000000       0.00000000       0.00000000
1
Lattice="20.0 0.0 0.0 0.0 20.0 0.0 0.0 0.0 20.0" Properties=species:S:1:pos:R:3:initial_charges:R:1:molID:I:1:forces:R:3 uid=be286e679fcdb10794d2f74e7294232c mID=16 energy=-196.27723586253632 virial="1.6021274404920405e-06 1.554312234475219e-14 1.554312234475219e-14 1.554312234475219e-14 1.6021274404920405e-06 1.554312234475219e-14 1.554312234475219e-14 1.554312234475219e-14 1.6021274404920405e-06" pbc="T T T"
Li      10.00000000      10.00000000      10.00000000       1.00000000       16       0.00000000       0.00000000       0.00000000
1
Lattice="20.0 0.0 0.0 0.0 20.0 0.0 0.0 0.0 20.0" Properties=species:S:1:pos:R:3:initial_charges:R:1:molID:I:1:forces:R:3 uid=9e7077c0f2a768724e1a0c8ea489f48b mID=14 energy=-196.27723586253632 virial="1.6021274404920405e-06 1.554312234475219e-14 1.554312234475219e-14 1.554312234475219e-14 1.6021274404920405e-06 1.554312234475219e-14 1.554312234475219e-14 1.554312234475219e-14 1.6021274404920405e-06" pbc="T T T"
Li      10.00000000      10.00000000      10.00000000       1.00000000       14       0.00000000       0.00000000       0.00000000
1
Lattice="20.0 0.0 0.0 0.0 20.0 0.0 0.0 0.0 20.0" Properties=species:S:1:pos:R:3:initial_charges:R:1:molID:I:1:forces:R:3 uid=9e7077c0f2a768724e1a0c8ea489f48b mID=15 energy=-196.27723586253632 virial="1.6021274404920405e-06 1.554312234475219e-14 1.554312234475219e-14 1.554312234475219e-14 1.6021274404920405e-06 1.554312234475219e-14 1.554312234475219e-14 1.554312234475219e-14 1.6021274404920405e-06" pbc="T T T"
Li      10.00000000      10.00000000      10.00000000       1.00000000       15       0.00000000       0.00000000       0.00000000
1
Lattice="20.0 0.0 0.0 0.0 20.0 0.0 0.0 0.0 20.0" Properties=species:S:1:pos:R:3:initial_charges:R:1:molID:I:1:forces:R:3 uid=9e7077c0f2a768724e1a0c8ea489f48b mID=16 energy=-196.27723586253632 virial="1.6021274404920405e-06 1.554312234475219e-14 1.554312234475219e-14 1.554312234475219e-14 1.6021274404920405e-06 1.554312234475219e-14 1.554312234475219e-14 1.554312234475219e-14 1.6021274404920405e-06" pbc="T T T"
Li      10.00000000      10.00000000      10.00000000       1.00000000       16       0.00000000       0.00000000       0.00000000
1
Lattice="20.0 0.0 0.0 0.0 20.0 0.0 0.0 0.0 20.0" Properties=species:S:1:pos:R:3:initial_charges:R:1:molID:I:1:forces:R:3 uid=f7f0e26f1f575da786b0a6788521fca9 mID=14 energy=-196.27723586253632 virial="1.6021274404920405e-06 1.554312234475219e-14 1.554312234475219e-14 1.554312234475219e-14 1.6021274404920405e-06 1.554312234475219e-14 1.554312234475219e-14 1.554312234475219e-14 1.6021274404920405e-06" pbc="T T T"
Li      10.00000000      10.00000000      10.00000000       1.00000000       14       0.00000000       0.00000000       0.00000000
1
Lattice="20.0 0.0 0.0 0.0 20.0 0.0 0.0 0.0 20.0" Properties=species:S:1:pos:R:3:initial_charges:R:1:molID:I:1:forces:R:3 uid=f7f0e26f1f575da786b0a6788521fca9 mID=15 energy=-196.27723586253632 virial="1.6021274404920405e-06 1.554312234475219e-14 1.554312234475219e-14 1.554312234475219e-14 1.6021274404920405e-06 1.554312234475219e-14 1.554312234475219e-14 1.554312234475219e-14 1.6021274404920405e-06" pbc="T T T"
Li      10.00000000      10.00000000      10.00000000       1.00000000       15       0.00000000       0.00000000       0.00000000
1
Lattice="20.0 0.0 0.0 0.0 20.0 0.0 0.0 0.0 20.0" Properties=species:S:1:pos:R:3:initial_charges:R:1:molID:I:1:forces:R:3 uid=f7f0e26f1f575da786b0a6788521fca9 mID=16 energy=-196.27723586253632 virial="1.6021274404920405e-06 1.554312234475219e-14 1.554312234475219e-14 1.554312234475219e-14 1.6021274404920405e-06 1.554312234475219e-14 1.554312234475219e-14 1.554312234475219e-14 1.6021274404920405e-06" pbc="T T T"
Li      10.00000000      10.00000000      10.00000000       1.00000000       16       0.00000000       0.00000000       0.00000000
1
Lattice="20.0 0.0 0.0 0.0 20.0 0.0 0.0 0.0 20.0" Properties=species:S:1:pos:R:3:initial_charges:R:1:molID:I:1:forces:R:3 uid=1b3d59ca7f52c5034fd7f770d9151989 mID=14 energy=-196.27723586253632 virial="1.6021274404920405e-06 1.554312234475219e-14 1.554312234475219e-14 1.554312234475219e-14 1.6021274404920405e-06 1.554312234475219e-14 1.554312234475219e-14 1.554312234475219e-14 1.6021274404920405e-06" pbc="T T T"
Li      10.00000000      10.00000000      10.00000000       1.00000000       14       0.00000000       0.00000000       0.00000000
1
Lattice="20.0 0.0 0.0 0.0 20.0 0.0 0.0 0.0 20.0" Properties=species:S:1:pos:R:3:initial_charges:R:1:molID:I:1:forces:R:3 uid=1b3d59ca7f52c5034fd7f770d9151989 mID=15 energy=-196.27723586253632 virial="1.6021274404920405e-06 1.554312234475219e-14 1.554312234475219e-14 1.554312234475219e-14 1.6021274404920405e-06 1.554312234475219e-14 1.554312234475219e-14 1.554312234475219e-14 1.6021274404920405e-06" pbc="T T T"
Li      10.00000000      10.00000000      10.00000000       1.00000000       15       0.00000000       0.00000000       0.00000000
1
Lattice="20.0 0.0 0.0 0.0 20.0 0.0 0.0 0.0 20.0" Properties=species:S:1:pos:R:3:initial_charges:R:1:molID:I:1:forces:R:3 uid=1b3d59ca7f52c5034fd7f770d9151989 mID=16 energy=-196.27723586253632 virial="1.6021274404920405e-06 1.554312234475219e-14 1.554312234475219e-14 1.554312234475219e-14 1.6021274404920405e-06 1.554312234475219e-14 1.554312234475219e-14 1.554312234475219e-14 1.6021274404920405e-06" pbc="T T T"
Li      10.00000000      10.00000000      10.00000000       1.00000000       16       0.00000000       0.00000000       0.00000000
1
Lattice="20.0 0.0 0.0 0.0 20.0 0.0 0.0 0.0 20.0" Properties=species:S:1:pos:R:3:initial_charges:R:1:molID:I:1:forces:R:3 uid=95c2767e4a20bbaa07966007ea572f9c mID=14 energy=-196.27723586253632 virial="1.6021274404920405e-06 1.554312234475219e-14 1.554312234475219e-14 1.554312234475219e-14 1.6021274404920405e-06 1.554312234475219e-14 1.554312234475219e-14 1.554312234475219e-14 1.6021274404920405e-06" pbc="T T T"
Li      10.00000000      10.00000000      10.00000000       1.00000000       14       0.00000000       0.00000000       0.00000000
1
Lattice="20.0 0.0 0.0 0.0 20.0 0.0 0.0 0.0 20.0" Properties=species:S:1:pos:R:3:initial_charges:R:1:molID:I:1:forces:R:3 uid=95c2767e4a20bbaa07966007ea572f9c mID=15 energy=-196.27723586253632 virial="1.6021274404920405e-06 1.554312234475219e-14 1.554312234475219e-14 1.554312234475219e-14 1.6021274404920405e-06 1.554312234475219e-14 1.554312234475219e-14 1.554312234475219e-14 1.6021274404920405e-06" pbc="T T T"
Li      10.00000000      10.00000000      10.00000000       1.00000000       15       0.00000000       0.00000000       0.00000000
1
Lattice="20.0 0.0 0.0 0.0 20.0 0.0 0.0 0.0 20.0" Properties=species:S:1:pos:R:3:initial_charges:R:1:molID:I:1:forces:R:3 uid=95c2767e4a20bbaa07966007ea572f9c mID=16 energy=-196.27723586253632 virial="1.6021274404920405e-06 1.554312234475219e-14 1.554312234475219e-14 1.554312234475219e-14 1.6021274404920405e-06 1.554312234475219e-14 1.554312234475219e-14 1.554312234475219e-14 1.6021274404920405e-06" pbc="T T T"
Li      10.00000000      10.00000000      10.00000000       1.00000000       16       0.00000000       0.00000000       0.00000000
1
Lattice="20.0 0.0 0.0 0.0 20.0 0.0 0.0 0.0 20.0" Properties=species:S:1:pos:R:3:initial_charges:R:1:molID:I:1:forces:R:3 uid=cadc5e8ebb6cb26a0fe8bcf07c5562b4 mID=14 energy=-196.27723586253632 virial="1.6021274404920405e-06 1.554312234475219e-14 1.554312234475219e-14 1.554312234475219e-14 1.6021274404920405e-06 1.554312234475219e-14 1.554312234475219e-14 1.554312234475219e-14 1.6021274404920405e-06" pbc="T T T"
Li      10.00000000      10.00000000      10.00000000       1.00000000       14       0.00000000       0.00000000       0.00000000
1
Lattice="20.0 0.0 0.0 0.0 20.0 0.0 0.0 0.0 20.0" Properties=species:S:1:pos:R:3:initial_charges:R:1:molID:I:1:forces:R:3 uid=cadc5e8ebb6cb26a0fe8bcf07c5562b4 mID=15 energy=-196.27723586253632 virial="1.6021274404920405e-06 1.554312234475219e-14 1.554312234475219e-14 1.554312234475219e-14 1.6021274404920405e-06 1.554312234475219e-14 1.554312234475219e-14 1.554312234475219e-14 1.6021274404920405e-06" pbc="T T T"
Li      10.00000000      10.00000000      10.00000000       1.00000000       15       0.00000000       0.00000000       0.00000000
1
Lattice="20.0 0.0 0.0 0.0 20.0 0.0 0.0 0.0 20.0" Properties=species:S:1:pos:R:3:initial_charges:R:1:molID:I:1:forces:R:3 uid=cadc5e8ebb6cb26a0fe8bcf07c5562b4 mID=16 energy=-196.27723586253632 virial="1.6021274404920405e-06 1.554312234475219e-14 1.554312234475219e-14 1.554312234475219e-14 1.6021274404920405e-06 1.554312234475219e-14 1.554312234475219e-14 1.554312234475219e-14 1.6021274404920405e-06" pbc="T T T"
Li      10.00000000      10.00000000      10.00000000       1.00000000       16       0.00000000       0.00000000       0.00000000
1
Lattice="20.0 0.0 0.0 0.0 20.0 0.0 0.0 0.0 20.0" Properties=species:S:1:pos:R:3:initial_charges:R:1:molID:I:1:forces:R:3 uid=271216281036ae1c32e7bc59e268b285 mID=14 energy=-196.27723586253632 virial="1.6021274404920405e-06 1.554312234475219e-14 1.554312234475219e-14 1.554312234475219e-14 1.6021274404920405e-06 1.554312234475219e-14 1.554312234475219e-14 1.554312234475219e-14 1.6021274404920405e-06" pbc="T T T"
Li      10.00000000      10.00000000      10.00000000       1.00000000       14       0.00000000       0.00000000       0.00000000
1
Lattice="20.0 0.0 0.0 0.0 20.0 0.0 0.0 0.0 20.0" Properties=species:S:1:pos:R:3:initial_charges:R:1:molID:I:1:forces:R:3 uid=271216281036ae1c32e7bc59e268b285 mID=15 energy=-196.27723586253632 virial="1.6021274404920405e-06 1.554312234475219e-14 1.554312234475219e-14 1.554312234475219e-14 1.6021274404920405e-06 1.554312234475219e-14 1.554312234475219e-14 1.554312234475219e-14 1.6021274404920405e-06" pbc="T T T"
Li      10.00000000      10.00000000      10.00000000       1.00000000       15       0.00000000       0.00000000       0.00000000
1
Lattice="20.0 0.0 0.0 0.0 20.0 0.0 0.0 0.0 20.0" Properties=species:S:1:pos:R:3:initial_charges:R:1:molID:I:1:forces:R:3 uid=271216281036ae1c32e7bc59e268b285 mID=16 energy=-196.27723586253632 virial="1.6021274404920405e-06 1.554312234475219e-14 1.554312234475219e-14 1.554312234475219e-14 1.6021274404920405e-06 1.554312234475219e-14 1.554312234475219e-14 1.554312234475219e-14 1.6021274404920405e-06" pbc="T T T"
Li      10.00000000      10.00000000      10.00000000       1.00000000       16       0.00000000       0.00000000       0.00000000
1
Lattice="20.0 0.0 0.0 0.0 20.0 0.0 0.0 0.0 20.0" Properties=species:S:1:pos:R:3:initial_charges:R:1:molID:I:1:forces:R:3 uid=081c4751c6670d25e6197be4aa9aabec mID=14 energy=-196.27723586253632 virial="1.6021274404920405e-06 1.554312234475219e-14 1.554312234475219e-14 1.554312234475219e-14 1.6021274404920405e-06 1.554312234475219e-14 1.554312234475219e-14 1.554312234475219e-14 1.6021274404920405e-06" pbc="T T T"
Li      10.00000000      10.00000000      10.00000000       1.00000000       14       0.00000000       0.00000000       0.00000000
1
Lattice="20.0 0.0 0.0 0.0 20.0 0.0 0.0 0.0 20.0" Properties=species:S:1:pos:R:3:initial_charges:R:1:molID:I:1:forces:R:3 uid=081c4751c6670d25e6197be4aa9aabec mID=15 energy=-196.27723586253632 virial="1.6021274404920405e-06 1.554312234475219e-14 1.554312234475219e-14 1.554312234475219e-14 1.6021274404920405e-06 1.554312234475219e-14 1.554312234475219e-14 1.554312234475219e-14 1.6021274404920405e-06" pbc="T T T"
Li      10.00000000      10.00000000      10.00000000       1.00000000       15       0.00000000       0.00000000       0.00000000
1
Lattice="20.0 0.0 0.0 0.0 20.0 0.0 0.0 0.0 20.0" Properties=species:S:1:pos:R:3:initial_charges:R:1:molID:I:1:forces:R:3 uid=081c4751c6670d25e6197be4aa9aabec mID=16 energy=-196.27723586253632 virial="1.6021274404920405e-06 1.554312234475219e-14 1.554312234475219e-14 1.554312234475219e-14 1.6021274404920405e-06 1.554312234475219e-14 1.554312234475219e-14 1.554312234475219e-14 1.6021274404920405e-06" pbc="T T T"
Li      10.00000000      10.00000000      10.00000000       1.00000000       16       0.00000000       0.00000000       0.00000000
1
Lattice="20.0 0.0 0.0 0.0 20.0 0.0 0.0 0.0 20.0" Properties=species:S:1:pos:R:3:initial_charges:R:1:molID:I:1:forces:R:3 uid=06e32c69f9f1a26c98e3cc3e41b52066 mID=12 energy=-196.27723586253632 virial="1.6021274404920405e-06 1.554312234475219e-14 1.554312234475219e-14 1.554312234475219e-14 1.6021274404920405e-06 1.554312234475219e-14 1.554312234475219e-14 1.554312234475219e-14 1.6021274404920405e-06" pbc="T T T"
Li      10.00000000      10.00000000      10.00000000       1.00000000       12       0.00000000       0.00000000       0.00000000
1
Lattice="20.0 0.0 0.0 0.0 20.0 0.0 0.0 0.0 20.0" Properties=species:S:1:pos:R:3:initial_charges:R:1:molID:I:1:forces:R:3 uid=06e32c69f9f1a26c98e3cc3e41b52066 mID=13 energy=-196.27723586253632 virial="1.6021274404920405e-06 1.554312234475219e-14 1.554312234475219e-14 1.554312234475219e-14 1.6021274404920405e-06 1.554312234475219e-14 1.554312234475219e-14 1.554312234475219e-14 1.6021274404920405e-06" pbc="T T T"
Li      10.00000000      10.00000000      10.00000000       1.00000000       13       0.00000000       0.00000000       0.00000000
1
Lattice="20.0 0.0 0.0 0.0 20.0 0.0 0.0 0.0 20.0" Properties=species:S:1:pos:R:3:initial_charges:R:1:molID:I:1:forces:R:3 uid=06e32c69f9f1a26c98e3cc3e41b52066 mID=14 energy=-196.27723586253632 virial="1.6021274404920405e-06 1.554312234475219e-14 1.554312234475219e-14 1.554312234475219e-14 1.6021274404920405e-06 1.554312234475219e-14 1.554312234475219e-14 1.554312234475219e-14 1.6021274404920405e-06" pbc="T T T"
Li      10.00000000      10.00000000      10.00000000       1.00000000       14       0.00000000       0.00000000       0.00000000
1
Lattice="20.0 0.0 0.0 0.0 20.0 0.0 0.0 0.0 20.0" Properties=species:S:1:pos:R:3:initial_charges:R:1:molID:I:1:forces:R:3 uid=06e32c69f9f1a26c98e3cc3e41b52066 mID=15 energy=-196.27723586253632 virial="1.6021274404920405e-06 1.554312234475219e-14 1.554312234475219e-14 1.554312234475219e-14 1.6021274404920405e-06 1.554312234475219e-14 1.554312234475219e-14 1.554312234475219e-14 1.6021274404920405e-06" pbc="T T T"
Li      10.00000000      10.00000000      10.00000000       1.00000000       15       0.00000000       0.00000000       0.00000000
1
Lattice="20.0 0.0 0.0 0.0 20.0 0.0 0.0 0.0 20.0" Properties=species:S:1:pos:R:3:initial_charges:R:1:molID:I:1:forces:R:3 uid=06e32c69f9f1a26c98e3cc3e41b52066 mID=16 energy=-196.27723586253632 virial="1.6021274404920405e-06 1.554312234475219e-14 1.554312234475219e-14 1.554312234475219e-14 1.6021274404920405e-06 1.554312234475219e-14 1.554312234475219e-14 1.554312234475219e-14 1.6021274404920405e-06" pbc="T T T"
Li      10.00000000      10.00000000      10.00000000       1.00000000       16       0.00000000       0.00000000       0.00000000
1
Lattice="20.0 0.0 0.0 0.0 20.0 0.0 0.0 0.0 20.0" Properties=species:S:1:pos:R:3:initial_charges:R:1:molID:I:1:forces:R:3 uid=06e32c69f9f1a26c98e3cc3e41b52066 mID=17 energy=-196.27723586253632 virial="1.6021274404920405e-06 1.554312234475219e-14 1.554312234475219e-14 1.554312234475219e-14 1.6021274404920405e-06 1.554312234475219e-14 1.554312234475219e-14 1.554312234475219e-14 1.6021274404920405e-06" pbc="T T T"
Li      10.00000000      10.00000000      10.00000000       1.00000000       17       0.00000000       0.00000000       0.00000000
1
Lattice="20.0 0.0 0.0 0.0 20.0 0.0 0.0 0.0 20.0" Properties=species:S:1:pos:R:3:initial_charges:R:1:molID:I:1:forces:R:3 uid=de79cb0f9c480d4eb484ecf17eebe4b2 mID=12 energy=-196.27723586253632 virial="1.6021274404920405e-06 1.554312234475219e-14 1.554312234475219e-14 1.554312234475219e-14 1.6021274404920405e-06 1.554312234475219e-14 1.554312234475219e-14 1.554312234475219e-14 1.6021274404920405e-06" pbc="T T T"
Li      10.00000000      10.00000000      10.00000000       1.00000000       12       0.00000000       0.00000000       0.00000000
1
Lattice="20.0 0.0 0.0 0.0 20.0 0.0 0.0 0.0 20.0" Properties=species:S:1:pos:R:3:initial_charges:R:1:molID:I:1:forces:R:3 uid=de79cb0f9c480d4eb484ecf17eebe4b2 mID=13 energy=-196.27723586253632 virial="1.6021274404920405e-06 1.554312234475219e-14 1.554312234475219e-14 1.554312234475219e-14 1.6021274404920405e-06 1.554312234475219e-14 1.554312234475219e-14 1.554312234475219e-14 1.6021274404920405e-06" pbc="T T T"
Li      10.00000000      10.00000000      10.00000000       1.00000000       13       0.00000000       0.00000000       0.00000000
1
Lattice="20.0 0.0 0.0 0.0 20.0 0.0 0.0 0.0 20.0" Properties=species:S:1:pos:R:3:initial_charges:R:1:molID:I:1:forces:R:3 uid=de79cb0f9c480d4eb484ecf17eebe4b2 mID=14 energy=-196.27723586253632 virial="1.6021274404920405e-06 1.554312234475219e-14 1.554312234475219e-14 1.554312234475219e-14 1.6021274404920405e-06 1.554312234475219e-14 1.554312234475219e-14 1.554312234475219e-14 1.6021274404920405e-06" pbc="T T T"
Li      10.00000000      10.00000000      10.00000000       1.00000000       14       0.00000000       0.00000000       0.00000000
1
Lattice="20.0 0.0 0.0 0.0 20.0 0.0 0.0 0.0 20.0" Properties=species:S:1:pos:R:3:initial_charges:R:1:molID:I:1:forces:R:3 uid=de79cb0f9c480d4eb484ecf17eebe4b2 mID=15 energy=-196.27723586253632 virial="1.6021274404920405e-06 1.554312234475219e-14 1.554312234475219e-14 1.554312234475219e-14 1.6021274404920405e-06 1.554312234475219e-14 1.554312234475219e-14 1.554312234475219e-14 1.6021274404920405e-06" pbc="T T T"
Li      10.00000000      10.00000000      10.00000000       1.00000000       15       0.00000000       0.00000000       0.00000000
1
Lattice="20.0 0.0 0.0 0.0 20.0 0.0 0.0 0.0 20.0" Properties=species:S:1:pos:R:3:initial_charges:R:1:molID:I:1:forces:R:3 uid=de79cb0f9c480d4eb484ecf17eebe4b2 mID=16 energy=-196.27723586253632 virial="1.6021274404920405e-06 1.554312234475219e-14 1.554312234475219e-14 1.554312234475219e-14 1.6021274404920405e-06 1.554312234475219e-14 1.554312234475219e-14 1.554312234475219e-14 1.6021274404920405e-06" pbc="T T T"
Li      10.00000000      10.00000000      10.00000000       1.00000000       16       0.00000000       0.00000000       0.00000000
1
Lattice="20.0 0.0 0.0 0.0 20.0 0.0 0.0 0.0 20.0" Properties=species:S:1:pos:R:3:initial_charges:R:1:molID:I:1:forces:R:3 uid=de79cb0f9c480d4eb484ecf17eebe4b2 mID=17 energy=-196.27723586253632 virial="1.6021274404920405e-06 1.554312234475219e-14 1.554312234475219e-14 1.554312234475219e-14 1.6021274404920405e-06 1.554312234475219e-14 1.554312234475219e-14 1.554312234475219e-14 1.6021274404920405e-06" pbc="T T T"
Li      10.00000000      10.00000000      10.00000000       1.00000000       17       0.00000000       0.00000000       0.00000000
1
Lattice="20.0 0.0 0.0 0.0 20.0 0.0 0.0 0.0 20.0" Properties=species:S:1:pos:R:3:initial_charges:R:1:molID:I:1:forces:R:3 uid=e991c8b9b9cd949a344ab2874c79619c mID=12 energy=-196.27723586253632 virial="1.6021274404920405e-06 1.554312234475219e-14 1.554312234475219e-14 1.554312234475219e-14 1.6021274404920405e-06 1.554312234475219e-14 1.554312234475219e-14 1.554312234475219e-14 1.6021274404920405e-06" pbc="T T T"
Li      10.00000000      10.00000000      10.00000000       1.00000000       12       0.00000000       0.00000000       0.00000000
1
Lattice="20.0 0.0 0.0 0.0 20.0 0.0 0.0 0.0 20.0" Properties=species:S:1:pos:R:3:initial_charges:R:1:molID:I:1:forces:R:3 uid=e991c8b9b9cd949a344ab2874c79619c mID=13 energy=-196.27723586253632 virial="1.6021274404920405e-06 1.554312234475219e-14 1.554312234475219e-14 1.554312234475219e-14 1.6021274404920405e-06 1.554312234475219e-14 1.554312234475219e-14 1.554312234475219e-14 1.6021274404920405e-06" pbc="T T T"
Li      10.00000000      10.00000000      10.00000000       1.00000000       13       0.00000000       0.00000000       0.00000000
1
Lattice="20.0 0.0 0.0 0.0 20.0 0.0 0.0 0.0 20.0" Properties=species:S:1:pos:R:3:initial_charges:R:1:molID:I:1:forces:R:3 uid=e991c8b9b9cd949a344ab2874c79619c mID=14 energy=-196.27723586253632 virial="1.6021274404920405e-06 1.554312234475219e-14 1.554312234475219e-14 1.554312234475219e-14 1.6021274404920405e-06 1.554312234475219e-14 1.554312234475219e-14 1.554312234475219e-14 1.6021274404920405e-06" pbc="T T T"