7
Lattice="20.0 0.0 0.0 0.0 20.0 0.0 0.0 0.0 20.0" Properties=species:S:1:pos:R:3:initial_charges:R:1:molID:I:1:forces:R:3 uid=fe24d71c2b6ceb3eb5db0dbc1e2dea32 mID=15 energy=-4198.1525823233505 virial="3.6646729084858625 1.9890098272713919 -1.6215194971664262 1.9890098272713919 8.134309028459638 3.2871366302269225 -1.6215194971664262 3.2871366302269225 10.532561893410238" pbc="T T T"
P        9.94294000       9.96600000       9.99032000       2.93000000       15      -0.01403182      -1.12101211       0.00589076
F       11.23178000       9.04550000      10.63808000      -0.65000000       15      -0.92363334       0.44358154       0.45781465
F        8.76822000      10.78326000       9.25574000      -0.67000000       15      -1.69274865       1.44329003      -0.73140164
F       10.87936000      10.26844000       8.79874000      -0.66000000       15       2.16975211      -0.17571112      -3.50281952
F        8.97256000       9.66194000      11.20126000      -0.64000000       15      -0.38981271       0.07076311       2.39751586
F        9.33826000       8.70454000       9.31742000      -0.65000000       15      -0.23713679      -3.30234569      -1.64700336
F       10.45304000      11.29546000      10.57318000      -0.65000000       15       1.08760119       2.64143427       3.01999327
7
Lattice="20.0 0.0 0.0 0.0 20.0 0.0 0.0 0.0 20.0" Properties=species:S:1:pos:R:3:initial_charges:R:1:molID:I:1:forces:R:3 uid=f3ba8e13d88d880ade7a938f8141c945 mID=15 energy=-4197.890686444425 virial="10.844716226057166 -1.3751782026292023 2.124988831009144 -1.3751782026292023 11.153124866207726 -1.1370759997388071 2.124988831009144 -1.1370759997388071 11.227115718858036" pbc="T T T"
P        9.99550000      10.03170000      10.10880000       3.00000000       15       0.67873176      -0.35851015      -4.31832558
F       11.16358000       9.24408000      10.67686000      -0.66000000       15       3.46175264      -2.28698075       2.49353518
F        8.83640000      10.78794000       9.43592000      -0.67000000       15      -2.89355328       2.58642316      -2.44111341
F       10.92130000      10.38156000       8.77660000      -0.67000000       15       0.65181025       0.32061458      -0.68029660
F        9.00682000       9.72734000      11.22340000      -0.67000000       15      -2.12049930      -1.35632951       4.64217139
F        9.54360000       8.68946000       9.38058000      -0.67000000       15      -0.90988003      -2.18050157      -1.50114712
F       10.50562000      11.31054000      10.79624000      -0.66000000       15       1.13164796       3.27527424       1.80517613
7
Lattice="20.0 0.0 0.0 0.0 20.0 0.0 0.0 0.0 20.0" Properties=species:S:1:pos:R:3:initial_charges:R:1:molID:I:1:forces:R:3 uid=7d5b922eaf8fdcbe6f94abd712f9530e mID=15 energy=-4198.299900046849 virial="5.695155871169513 2.526728261422484 0.15050810470272732 2.526728261422484 7.732888228268212 0.3487739431176828 0.15050810470272732 0.3487739431176828 10.888255483053905" pbc="T T T"
P        9.96258000       9.99250000       9.96880000       2.95000000       15       0.97977705      -0.20774081       0.88119245
F       11.56470000       9.58184000       9.98480000      -0.66000000       15       0.78353092       0.08477061       0.68918482
F        8.43530000      10.43748000       9.84210000      -0.66000000       15      -2.50246719      -0.39878762       0.21268758
F       10.19258000      10.49428000       8.54472000      -0.66000000       15       0.55406221       1.01617163      -4.60520822
F        9.81222000       9.49546000      11.45528000      -0.65000000       15      -0.38960215      -0.52973610       2.19277327
F        9.64392000       8.54446000       9.47432000      -0.65000000       15      -0.91028962      -2.53374319      -1.03568495
F       10.22044000      11.45554000      10.46702000      -0.66000000       15       1.48497878       2.56907548       1.66505506
7
Lattice="20.0 0.0 0.0 0.0 20.0 0.0 0.0 0.0 20.0" Properties=species:S:1:pos:R:3:initial_charges:R:1:molID:I:1:forces:R:3 uid=4accdfe0cfba4a1c496c6fa1e6102ac6 mID=15 energy=-4198.000512104065 virial="8.28500573160868 -2.5652063453746425 1.6023675196939764 -2.5652063453746425 9.695343694767711 -1.261614495432306 1.6023675196939764 -1.261614495432306 6.566948525026874" pbc="T T T"
P       10.02528000       9.97328000      10.03928000       2.93000000       15      -0.37135998       0.95524673      -1.51594002
F       11.48740000      10.49732000      10.29226000      -0.66000000       15       3.29349937      -0.28839577       1.56323969
F        8.51260000       9.52666000       9.75426000      -0.65000000       15      -1.93097593       0.20469686      -0.06499705
F       10.18410000      10.92240000       8.76724000      -0.66000000       15      -2.19219973       3.02123434      -1.99534306
F       10.15110000       8.98276000      11.23276000      -0.65000000       15       0.16118524      -1.98085534       1.93186043
F       10.39554000       8.88730000       8.95846000      -0.66000000       15       1.84016665      -3.38450299      -0.71962165
F        9.47424000      11.11270000      11.00494000      -0.65000000       15      -0.80032560       1.47257618       0.80081165
7
Lattice="20.0 0.0 0.0 0.0 20.0 0.0 0.0 0.0 20.0" Properties=species:S:1:pos:R:3:initial_charges:R:1:molID:I:1:forces:R:3 uid=240a11c1a26d67a4ddc3c33c34a08bab mID=15 energy=-4198.743588472003 virial="1.3710001501106683 0.4798950828617262 0.5075636048306003 0.4798950828617262 4.754413090856044 0.7404958426897467 0.5075636048306003 0.7404958426897467 -0.6171863792647834" pbc="T T T"
P        9.98454000       9.99550000      10.04052000       2.81000000       15      -0.68188650      -0.55216043       0.14242762
F       11.31070000       9.34970000      10.74886000      -0.63000000       15       0.21089524      -0.46452357      -0.34716488
F        8.68930000      10.65824000       9.31874000      -0.64000000       15      -0.59620799       0.39404995      -0.34438956
F       10.61448000      11.42740000      10.24714000      -0.63000000       15       1.02511444       1.66753645      -0.50777136
F        9.23028000       8.57260000      10.03490000      -0.63000000       15       0.29731786      -1.35545401      -1.06642865
F       10.64334000       9.80462000       8.49466000      -0.63000000       15      -0.03010020      -0.18100381       1.12896002
F        9.27446000      10.16650000      11.50534000      -0.65000000       15      -0.22512285       0.49156542       0.99437681
7
Lattice="20.0 0.0 0.0 0.0 20.0 0.0 0.0 0.0 20.0" Properties=species:S:1:pos:R:3:initial_charges:R:1:molID:I:1:forces:R:3 uid=873408963b66ecd89f2b1ce2cdea2704 mID=15 energy=-4197.98242588225 virial="7.464495540249031 1.2015896453266712 3.3514385193245264 1.2015896453266712 6.333688359981724 1.2384374529139028 3.3514385193245264 1.2384374529139028 10.934335354818725" pbc="T T T"
P        9.90038000       9.96638000      10.05616000       2.94000000       15       0.55463498       3.04943034      -0.32519624
F       10.54264000       8.73464000       9.38186000      -0.67000000       15       0.63449586      -3.36171495      -3.52446680
F        9.21944000      11.26536000      10.85596000      -0.65000000       15       0.52235669       0.14311943       0.07178590
F       10.90960000       9.68544000      11.15038000      -0.67000000       15       3.16312410       0.54892082       5.19584301
F        8.97190000      10.30258000       8.84962000      -0.64000000       15      -1.71856099      -0.11051111      -1.81269597
F       11.09002000      10.89374000       9.35702000      -0.66000000       15      -0.11802913       1.16335855      -0.40124224
F        8.90996000       9.01834000      10.79946000      -0.66000000       15      -3.03803149      -1.43259309       0.79597233
7
Lattice="20.0 0.0 0.0 0.0 20.0 0.0 0.0 0.0 20.0" Properties=species:S:1:pos:R:3:initial_charges:R:1:molID:I:1:forces:R:3 uid=e9a62115a0e7762ee9b68a93fff3c645 mID=15 energy=-4198.094932616977 virial="7.423919720830659 0.6087046243043063 -1.1041529023030585 0.6087046243043063 7.550218516428466 -0.2510655982553883 -1.1041529023030585 -0.2510655982553883 6.583297875290747" pbc="T T T"
P       10.02084000       9.93816000      10.10014000       2.92000000       15      -2.66685796      -1.35420396      -2.79841207
F        8.52684000      10.19496000       9.53824000      -0.67000000       15      -2.65186043       0.37925166       0.18924155
F       11.47316000       9.62194000      10.58638000      -0.64000000       15       1.84439320       0.04063508       0.98418772
F        9.35430000       8.98676000      11.20182000      -0.64000000       15       0.12894171      -0.13590563       1.77495030
F       10.44532000      10.69926000       8.79818000      -0.66000000       15       2.67668818       2.95880674      -2.01720176
F       10.06156000       8.68864000       9.07920000      -0.67000000       15       0.36678206      -3.01970967      -0.25539422
F        9.92570000      11.31136000      10.86056000      -0.64000000       15       0.30191325       1.13113577       2.12263848
7
Lattice="20.0 0.0 0.0 0.0 20.0 0.0 0.0 0.0 20.0" Properties=species:S:1:pos:R:3:initial_charges:R:1:molID:I:1:forces:R:3 uid=f6ebea952552dc77beaa8b098a0921b2 mID=15 energy=-4198.525933353847 virial="2.0786280432960336 -1.5970690984414575 -0.24972918552615694 -1.5970690984414575 0.2572459207134803 0.3166347719407487 -0.24972918552615694 0.3166347719407487 1.5975846256028337" pbc="T T T"
P       10.05624000      10.01140000      10.05064000       2.79000000       15      -1.02611781       1.82596034      -3.41928745
F        9.30284000      10.03210000      11.45064000      -0.62000000       15      -0.31745187       0.61271082       0.79123961
F       10.72306000      10.01560000       8.54936000      -0.64000000       15       0.42958757       0.10149738      -0.47130846
F        8.77574000      10.90170000       9.29084000      -0.62000000       15       0.85023806      -0.43886100       1.38498851
F       11.22424000       9.15380000      10.57004000      -0.64000000       15       2.73504439      -1.30888211       1.78788006
F       10.98376000      11.40430000      10.37784000      -0.63000000       15      -1.34813747      -0.49023116       0.17793356
F        9.34384000       8.59570000       9.66644000      -0.64000000       15      -1.32317286      -0.30218428      -0.25145583
7
Lattice="20.0 0.0 0.0 0.0 20.0 0.0 0.0 0.0 20.0" Properties=species:S:1:pos:R:3:initial_charges:R:1:molID:I:1:forces:R:3 uid=ee6afbf0e5edb73032add1c3bb8c895a mID=15 energy=-4198.586604425732 virial="3.1979862701264654 0.8710767046944148 -1.21856163364441 0.8710767046944148 1.5513712038146814 -0.4437100804837567 -1.21856163364441 -0.4437100804837567 3.12266102738952" pbc="T T T"
P       10.05950000       9.95034000       9.98464000       2.82000000       15       0.48601810       1.25536931       1.39171125
F        9.05650000      10.31104000      11.14466000      -0.65000000       15      -2.39287553       0.26153686       1.88969708
F       11.16050000       9.57474000       8.84634000      -0.62000000       15      -0.34431108       0.47878740      -0.29386687
F       10.28350000      11.60344000       9.88964000      -0.64000000       15       0.58277419      -0.18751720      -1.40445860
F        9.83150000       8.39656000      10.31664000      -0.64000000       15      -0.39553593      -1.42707139      -0.74153087
F       11.20050000       9.94374000      11.15366000      -0.65000000       15       1.58278732      -0.06436486       0.03553451
F        8.79950000      10.02594000       8.95164000      -0.63000000       15       0.48114292      -0.31673012      -0.87707651
7
Lattice="20.0 0.0 0.0 0.0 20.0 0.0 0.0 0.0 20.0" Properties=species:S:1:pos:R:3:initial_charges:R:1:molID:I:1:forces:R:3 uid=95e77c0840efc1897a2745ff0feae596 mID=15 energy=-4198.728326686211 virial="3.0006365400170365 1.2325794429568662 -1.3364065849902802 1.2325794429568662 3.023458190876374 0.043109558886721536 -1.3364065849902802 0.043109558886721536 4.053627263493665" pbc="T T T"
P       10.06300000       9.97200000      10.02400000       2.85000000       15      -1.84206120       1.25772073      -2.02081320
F        9.36300000       8.53700000       9.96600000      -0.64000000       15      -0.73182676      -1.27194656       0.76344139
F       10.66400000      11.46300000       9.90700000      -0.64000000       15       0.91384391       0.89946504       0.30799323
F       11.47300000       9.27500000      10.21700000      -0.64000000       15       1.79823502      -0.42206119      -0.06724851
F        8.52700000      10.66800000       9.81900000      -0.65000000       15       0.29455835      -0.26745579       0.38051156
F       10.19500000       9.88600000       8.40800000      -0.65000000       15       0.27562619      -0.12829622      -1.09497302
F        9.96800000      10.13000000      11.59200000      -0.64000000       15      -0.70837552      -0.06743600       1.73108856
7
Lattice="20.0 0.0 0.0 0.0 20.0 0.0 0.0 0.0 20.0" Properties=species:S:1:pos:R:3:initial_charges:R:1:molID:I:1:forces:R:3 uid=97de9190c08668a05191d6a28f86f940 mID=17 energy=-4198.166179188384 virial="10.212730244665904 -0.8142897322440334 -1.2537726079388107 -0.8142897322440334 5.709663017374389 0.3128927231479204 -1.2537726079388107 0.3128927231479204 7.077609009289762" pbc="T T T"
P       10.02830000      10.06708000       9.93888000       2.93000000       17      -3.18417431      -0.45082146       1.47405078
F        9.74446000       9.23812000      11.32094000      -0.66000000       17       0.77794872      -0.90605567       1.06186354
F        9.99982000      11.01420000       8.67906000      -0.66000000       17       1.80101318       0.93458955      -2.88089239
F       10.44768000      11.28276000      10.87090000      -0.66000000       17       0.63082096       1.87146965       1.00226335
F        9.60202000       8.71724000       9.17344000      -0.65000000       17      -0.09566361      -1.05824582      -1.58378788
F       11.49378000       9.67570000       9.76628000      -0.65000000       17       3.52609133      -0.96293623      -0.24108869
F        8.50620000      10.46996000       9.97170000      -0.66000000       17      -3.45603628       0.57199999       1.16759131
7
Lattice="20.0 0.0 0.0 0.0 20.0 0.0 0.0 0.0 20.0" Properties=species:S:1:pos:R:3:initial_charges:R:1:molID:I:1:forces:R:3 uid=97de9190c08668a05191d6a28f86f940 mID=18 energy=-4198.18600734947 virial="8.038250455127528 0.7802110327562606 -0.9407188108883321 0.7802110327562606 10.423894204456523 -0.2511561390379146 -0.9407188108883321 -0.2511561390379146 4.868750721543645" pbc="T T T"
P        9.97640000       9.97658000      10.02996000       2.93000000       18       0.20998075      -0.66660524       1.18626265
F       11.56280000       9.76728000      10.19002000      -0.64000000       18       1.09727981       0.02984075      -0.29983353
F        8.43720000      10.09136000       9.87842000      -0.67000000       18      -4.27561897       0.02411266       0.20010355
F        9.68920000       8.71922000      10.97958000      -0.65000000       18       0.46075535      -2.26904156       0.19488876
F       10.02222000      11.28078000       9.20440000      -0.66000000       18       1.85968435       3.76920858      -1.71935998
F        9.98106000      10.84696000      11.37546000      -0.66000000       18       0.08893604       1.37032234       1.52610962
F       10.00378000       9.22032000       8.62454000      -0.65000000       18       0.55897267      -2.25783755      -1.08817107
7
Lattice="20.0 0.0 0.0 0.0 20.0 0.0 0.0 0.0 20.0" Properties=species:S:1:pos:R:3:initial_charges:R:1:molID:I:1:forces:R:3 uid=97de9190c08668a05191d6a28f86f940 mID=19 energy=-4197.862197609411 virial="8.989812249963594 0.872382971064212 -1.8563353828937619 0.872382971064212 10.598188801190423 0.6859794332978173 -1.8563353828937619 0.6859794332978173 11.639668745003156" pbc="T T T"
P       10.07066000      10.08828000       9.92734000       2.98000000       19      -0.59216496      -4.34250017       1.04438931
F        9.11290000      10.97732000      10.73150000      -0.67000000       19      -2.72057072       1.70474557       3.58106944
F       11.06632000       9.29590000       9.00190000      -0.66000000       19       1.39754869      -1.96995535      -1.93001914
F       11.19548000      10.25528000      10.99808000      -0.67000000       19       2.59713178       1.13343318       2.18481892
F        8.80452000       9.77386000       9.00950000      -0.66000000       19      -1.03793859      -0.69183886      -2.06990535
F        9.77684000       8.67722000      10.71592000      -0.66000000       19      -1.20918367      -0.83873133       0.59434541
F       10.48408000      11.32278000       9.18906000      -0.67000000       19       1.56519746       5.00483697      -3.40468860
7
Lattice="20.0 0.0 0.0 0.0 20.0 0.0 0.0 0.0 20.0" Properties=species:S:1:pos:R:3:initial_charges:R:1:molID:I:1:forces:R:3 uid=597907a16dc98795aa8b2af0d974640c mID=17 energy=-4197.941606080165 virial="7.877814276905202 1.4020456600966438 -0.050595825564366245 1.4020456600966438 6.989504476906515 -2.582288019966861 -0.050595825564366245 -2.582288019966861 12.907051201666599" pbc="T T T"
P       10.03246000      10.09288000      10.01214000       2.96000000       17      -0.53361925      -3.27431028       0.21272355
F       10.33214000      11.49278000      10.64098000      -0.66000000       17       1.07820145       3.21200807      -0.33463399
F        9.74512000       8.50722000       9.60120000      -0.67000000       17      -0.88057592      -0.81534716      -1.33629183
F       10.43390000      10.47104000       8.58648000      -0.65000000       17       0.55959379       1.33996026      -3.30659522
F        9.59736000       9.70622000      11.41352000      -0.67000000       17      -1.04019856      -2.00982057       5.37160974
F       11.50174000       9.53450000      10.26026000      -0.66000000       17       2.70213602       0.38896363       0.80018739
F        8.49826000      10.41596000       9.74944000      -0.66000000       17      -1.88553752       1.15854605      -1.40699964
7
Lattice="20.0 0.0 0.0 0.0 20.0 0.0 0.0 0.0 20.0" Properties=species:S:1:pos:R:3:initial_charges:R:1:molID:I:1:forces:R:3 uid=597907a16dc98795aa8b2af0d974640c mID=18 energy=-4197.126236593919 virial="10.990497330765288 -4.275432803450573 0.23171999458465184 -4.275432803450573 17.565822854000263 2.7910708078145436 0.23171999458465184 2.7910708078145436 15.913320894201984" pbc="T T T"
P        9.99908000       9.88146000      10.02194000       3.06000000       18      -0.24277462       3.46028675       1.03313838
F       11.48832000      10.37990000      10.33702000      -0.68000000       18       2.67776473       0.39929806       1.22360711
F        8.51168000       9.41744000       9.82804000      -0.67000000       18      -3.23360975      -0.70880686      -1.72608076
F        9.98768000       8.92632000      11.21898000      -0.67000000       18       1.16785413      -2.61736441       3.65858528
F       10.01190000      10.82756000       8.78102000      -0.69000000       18      -1.20985619       3.57842602      -3.42667239
F        9.50138000      11.07366000      10.82918000      -0.67000000       18      -1.89131230       3.50128520       3.45028981
F       10.55820000       8.93220000       9.06638000      -0.68000000       18       2.73193398      -7.61311476      -4.21287744
7
Lattice="20.0 0.0 0.0 0.0 20.0 0.0 0.0 0.0 20.0" Properties=species:S:1:pos:R:3:initial_charges:R:1:molID:I:1:forces:R:3 uid=597907a16dc98795aa8b2af0d974640c mID=19 energy=-4198.050755160948 virial="9.430278454160138 0.7569529734423809 -2.2558676898825873 0.7569529734423809 8.912856821023333 -2.5399163835133907 -2.2558676898825873 -2.5399163835133907 8.024762043439955" pbc="T T T"
P       10.10398000      10.05110000       9.94614000       2.95000000       19      -2.25228301      -1.37830505      -0.84142703
F        9.15410000      10.90460000      10.86488000      -0.67000000       19      -3.08929936       0.35127384       2.55076774
F       11.07104000       9.34892000       8.90138000      -0.65000000       19       1.70216992      -0.99954990      -0.92944806
F       11.07924000      10.02570000      11.17664000      -0.65000000       19       2.41567842      -1.11468421       1.50837503
F        8.92076000      10.12238000       8.82334000      -0.66000000       19      -0.73226550       0.07177108      -1.40760195
F        9.53804000       8.60510000      10.29128000      -0.65000000       19      -0.74348171      -1.42854427       1.45027433
F       10.64154000      11.39490000       9.51028000      -0.67000000       19       2.69948125       4.49802851      -2.33094007
7
Lattice="20.0 0.0 0.0 0.0 20.0 0.0 0.0 0.0 20.0" Properties=species:S:1:pos:R:3:initial_charges:R:1:molID:I:1:forces:R:3 uid=be286e679fcdb10794d2f74e7294232c mID=17 energy=-4198.418572500206 virial="8.749895440072482 0.6325822366306163 1.0010508500098056 0.6325822366306163 3.7265583129702304 -0.759405601735809 1.0010508500098056 -0.759405601735809 7.755766775539069" pbc="T T T"
P        9.96200000      10.01186000       9.97012000       2.92000000       17      -0.43433871      -0.93783197       0.88587975
F        9.45394000       9.58648000      11.43972000      -0.64000000       17      -0.49251728      -0.15484022       1.02638799
F       10.49694000      10.35410000       8.56028000      -0.66000000       17       0.96333270       1.10430688      -3.60109487
F       10.50166000      11.38180000      10.56730000      -0.66000000       17       1.90428626       1.42660099       1.17440767
F        9.34236000       8.61820000       9.41308000      -0.65000000       17      -1.07946031      -0.63532089      -0.53420298
F       11.33312000       9.24078000      10.17088000      -0.65000000       17       2.03363380      -0.84050243       1.44101061
F        8.66688000      10.85930000       9.64650000      -0.65000000       17      -2.89492647       0.03757764      -0.39238818
7
Lattice="20.0 0.0 0.0 0.0 20.0 0.0 0.0 0.0 20.0" Properties=species:S:1:pos:R:3:initial_charges:R:1:molID:I:1:forces:R:3 uid=be286e679fcdb10794d2f74e7294232c mID=18 energy=-4198.432920540976 virial="7.06377669838971 -0.2399698802372648 -0.5988783866833542 -0.2399698802372648 8.213857132385776 0.8430862695713905 -0.5988783866833542 0.8430862695713905 5.96407004789686" pbc="T T T"
P        9.92742000       9.98488000       9.98634000       2.93000000       18       3.06362172       0.45616733      -0.43056092
F       11.33332000      10.79898000      10.22344000      -0.66000000       18       0.67165708       0.66223131       0.64269829
F        8.66666000       9.19154000       9.59078000      -0.66000000       18      -3.20472813      -2.04137782       0.00909615
F       10.04944000       9.20952000      11.38566000      -0.65000000       18       0.40410562      -0.97939887       1.18238559
F        9.72160000      10.77696000       8.61434000      -0.66000000       18       0.30426909       1.28192075      -1.88046839
F        9.17628000      11.10436000      10.74146000      -0.65000000       18      -2.08402773       2.35513858       1.47319251
F       10.84626000       8.89564000       9.27740000      -0.65000000       18       0.84509234      -1.73468129      -0.99634323
7
Lattice="20.0 0.0 0.0 0.0 20.0 0.0 0.0 0.0 20.0" Properties=species:S:1:pos:R:3:initial_charges:R:1:molID:I:1:forces:R:3 uid=be286e679fcdb10794d2f74e7294232c mID=19 energy=-4198.341049887089 virial="7.775009190446401 -0.14785662416667278 -1.991993744483074 -0.14785662416667278 5.857537431871024 0.7084890302832045 -1.991993744483074 0.7084890302832045 10.424425744883388" pbc="T T T"
P       10.04620000       9.98488000      10.00358000       2.95000000       19      -2.11779061       2.00497184       0.79718684
F        9.17372000      10.59726000      11.17670000      -0.65000000       19      -1.07487177       0.22647180       2.09009388
F       10.84876000       9.49898000       8.82330000      -0.66000000       19       2.84146017      -1.41998866      -4.21536648
F       11.32936000      10.09358000      10.90296000      -0.66000000       19       2.24617599       0.48680220       1.44972781
F        8.67062000       9.83964000       9.17636000      -0.66000000       19      -1.28088354       0.01974799      -1.22425320
F        9.88810000       8.48526000      10.45588000      -0.66000000       19      -0.79288416      -2.38578191       1.53263498
F       10.24648000      11.51474000       9.46616000      -0.66000000       19       0.17879393       1.06776674      -0.43003385
7
Lattice="20.0 0.0 0.0 0.0 20.0 0.0 0.0 0.0 20.0" Properties=species:S:1:pos:R:3:initial_charges:R:1:molID:I:1:forces:R:3 uid=9e7077c0f2a768724e1a0c8ea489f48b mID=17 energy=-4198.444523239399 virial="8.015587552150933 0.13744289644611005 1.3866164429228975 0.13744289644611005 7.982899244126749 -0.2456763685235327 1.3866164429228975 -0.2456763685235327 8.05251387271228" pbc="T T T"
P       10.01794000       9.99490000       9.97320000       2.95000000       17      -1.74655905       0.83211201       0.55962499
F        9.57818000       8.79202000      10.89292000      -0.66000000       17      -0.22865007      -2.13834595       1.78567938
F       10.39702000      11.20798000       9.03434000      -0.66000000       17       0.58979731       1.98897020      -1.24123595
F        9.90928000      10.96498000      11.24854000      -0.65000000       17       0.71337877       1.12947325       1.31077197
F       10.02734000       9.02732000       8.75146000      -0.66000000       17      -0.00778925      -1.93732730      -2.77189295
F       11.52722000       9.70252000      10.19546000      -0.65000000       17       2.96391922      -0.39985139       1.10050647
F        8.47278000      10.29436000       9.72342000      -0.66000000       17      -2.28410692       0.52496917      -0.74345389
7
Lattice="20.0 0.0 0.0 0.0 20.0 0.0 0.0 0.0 20.0" Properties=species:S:1:pos:R:3:initial_charges:R:1:molID:I:1:forces:R:3 uid=9e7077c0f2a768724e1a0c8ea489f48b mID=18 energy=-4197.677729313259 virial="9.641094562440077 0.40114275586998926 -2.4783438277290823 0.40114275586998926 7.326507633968083 -3.05041263662554 -2.4783438277290823 -3.05041263662554 9.797393957687405" pbc="T T T"
P        9.98874000      10.03882000       9.94648000       2.94000000       18       0.12477032      -3.37673450       3.63876821
F       10.00912000       8.75120000      10.96090000      -0.65000000       18      -0.43198655      -0.45562115       1.41747610
F        9.92554000      11.24880000       9.08792000      -0.66000000       18       1.41898295       5.11121676      -4.32711053
F       11.16246000      10.80908000      10.81984000      -0.64000000       18       0.91098897      -0.77817364       0.02671482
F        8.83754000       9.47868000       9.03908000      -0.67000000       18      -3.30770264      -2.07258078      -1.22134988
F       10.90018000       9.06978000       9.09026000      -0.64000000       18       3.25486383       0.48460212      -1.85949783
F        8.90340000      10.68618000      10.87774000      -0.66000000       18      -1.96992690       1.08730120       2.32498912
7
Lattice="20.0 0.0 0.0 0.0 20.0 0.0 0.0 0.0 20.0" Properties=species:S:1:pos:R:3:initial_charges:R:1:molID:I:1:forces:R:3 uid=9e7077c0f2a768724e1a0c8ea489f48b mID=19 energy=-4198.365561493903 virial="3.8781591838626985 0.44642639838711723 -0.16383129114188885 0.44642639838711723 8.536270802612856 -0.3404183912515368 -0.16383129114188885 -0.3404183912515368 6.608271817614244" pbc="T T T"
P        9.95986000      10.01982000       9.97216000       2.91000000       19       3.35050868       0.07827088      -0.02701151
F        8.61046000      10.37926000       9.23904000      -0.64000000       19      -1.36945659       0.31017069      -1.16111035
F       11.38954000       9.77852000      10.75996000      -0.66000000       19       0.86138817      -0.57979311       0.87560433
F        9.29828000      10.37404000      11.36068000      -0.65000000       19      -0.81864807       1.59284342       1.74773174
F       10.67112000       9.44376000       8.63932000      -0.66000000       19       0.35163649       0.23117429      -1.96080040
F        9.58726000       8.54680000      10.23064000      -0.66000000       19      -1.73558140      -3.59439994       0.76153445
F       10.59412000      11.45320000       9.65022000      -0.64000000       19      -0.63984728       1.96172376      -0.23594825
7
Lattice="20.0 0.0 0.0 0.0 20.0 0.0 0.0 0.0 20.0" Properties=species:S:1:pos:R:3:initial_charges:R:1:molID:I:1:forces:R:3 uid=f7f0e26f1f575da786b0a6788521fca9 mID=17 energy=-4198.107083004605 virial="14.086266984119979 -2.146305247547948 0.6009506940830207 -2.146305247547948 6.054833184273674 -2.6470031190204044 0.6009506940830207 -2.6470031190204044 7.2425840294911445" pbc="T T T"
P        9.98588000       9.99760000      10.00238000       2.97000000       17       1.82632076       0.71354833      -1.39006836
F       11.33864000       9.28544000       9.99676000      -0.66000000       17       4.50704435      -1.46481656       1.30461301
F        8.66136000      10.70464000       9.84968000      -0.66000000       17      -4.71020975       1.69866550      -0.19850189
F       10.53968000      10.91716000       8.81658000      -0.67000000       17       0.78280458       1.30630645      -1.91357688
F        9.48832000       9.13266000      11.18342000      -0.66000000       17      -1.27813989      -1.75024490       2.55154623
F        9.58350000       8.83828000       8.93760000      -0.67000000       17      -1.66930940      -0.82663622      -1.20616534
F       10.47598000      11.16172000      11.05040000      -0.66000000       17       0.54148934       0.32317738       0.85215326
7