8
Lattice="-3.899472468348846 -2.0242322829885868e-07 -2.0855732801700334e-12 -1.9497364753860793 4.617329514614132 -2.631219428891143e-09 -3.2618541979763243e-12 1.9736184273338214e-09 -7.341278861272438" Properties=species:S:1:pos:R:3:forces:R:3:energies:R:1 oqmd_id=10434 name=OQMD_10434 oqmd_composition=MgAl2Cu oqmd_formation_energy=-0.182843854792 oqmd_volume_per_atom=16.5061 potential_energy=-27.842839871794922 formation_energy=-0.20040319307219345 oqmd_volume_peratom=16.5061 formula=Mg2Al4Cu2 volume_peratom=16.522603123866688 lattice_a=3.8994724683488515 lattice_b=5.012105762050289 lattice_c=7.341278861272438 angle_alpha=90.00000004427872 angle_beta=89.99999999994391 angle_gamma=67.10737300853954 symmetry_number=63 symmetry_symbol=Cmcm energy=-27.842839871794922 stress="5.436670664969938e-09 -2.1516286096583138e-09 6.515837990795176e-13 -2.1516286096583138e-09 -1.038730482076524e-09 -4.208366086601394e-09 6.515837990795176e-13 -4.208366086601394e-09 4.378783514368156e-09" free_energy=-27.842839871794922 pbc="T T T"
Al      -1.94973770       1.32211136      -3.28178000      -0.00000026      -0.00000057      -0.00000069      -3.94314928
Al      -3.89947417       3.29521397      -4.05950091       0.00000026       0.00000055       0.00000074      -3.94314929
Al      -1.94973770       1.32211120      -0.38886128      -0.00000026       0.00000054      -0.00000063      -3.94314936
Al      -3.89947417       3.29521413      -6.95241964       0.00000026      -0.00000052       0.00000069      -3.94314935
Cu      -1.94973789       2.54079479      -5.50596023       0.00000008       0.00000003       0.00000030      -4.09806802
Cu      -3.89947398       2.07653054      -1.83532063      -0.00000008      -0.00000003      -0.00000058      -4.09806802
Mg      -1.94973792       4.03026510      -1.83532071       0.00000011       0.00000002      -0.00000034      -1.93705328
Mg      -3.89947395       0.58706022      -5.50596030      -0.00000011      -0.00000002       0.00000052      -1.93705328
