2
Lattice="3.18552 0.0 0.0 -1.59276 2.758688 0.0 0.0 0.0 5.200198" Properties=species:S:1:pos:R:3:forces:R:3:energies:R:1 oqmd_id=9226 name=OQMD_9226 oqmd_composition=Mg oqmd_formation_energy=0.00019360583333 oqmd_volume_per_atom=22.8493 formula=Mg potential_energy=-3.220292228256359 formation_energy=0.0 volume_peratom=22.849295071899974 lattice_a=3.18552 lattice_b=3.1854738892265306 lattice_c=5.200198 angle_alpha=90.0 angle_beta=90.0 angle_gamma=120.00047884108967 oqmd_volume_peratom=22.8493 energy=-3.220292228256359 stress="-0.0005216274629129153 7.657779826466833e-18 7.418874436836089e-19 7.657779826466833e-18 -0.0005152531417103457 -2.0377265318208345e-11 7.418874436836089e-19 -2.0377265318208345e-11 0.0007773151108234386" free_energy=-3.220292228256359 pbc="T T T"
Mg       1.59276000       0.91973000       3.90015000       0.00000000      -0.00017387      -0.00000209      -1.61014611
Mg       0.00000000       1.83896000       1.30005000      -0.00000000       0.00017387       0.00000209      -1.61014611
