2
Lattice="3.18552 0.0 0.0 -1.59276 2.758688 0.0 0.0 0.0 5.200198" Properties=species:S:1:pos:R:3:forces:R:3:energies:R:1 oqmd_id=9226 name=OQMD_9226 oqmd_composition=Mg oqmd_formation_energy=0.00019360583333 oqmd_volume_per_atom=22.8493 formula=Mg potential_energy=-3.220292228256358 formation_energy=0.0 volume_peratom=22.849295071899974 lattice_a=3.18552 lattice_b=3.1854738892265306 lattice_c=5.200198 angle_alpha=90.0 angle_beta=90.0 angle_gamma=120.00047884108967 oqmd_volume_peratom=22.8493 energy=-3.220292228256358 stress="-0.0005216274629128846 1.5037902342272598e-17 9.421992378658942e-18 1.5037902342272598e-17 -0.0005152531417103306 -2.0377273270800267e-11 9.421992378658942e-18 -2.0377273270800267e-11 0.0007773151108234586" free_energy=-3.220292228256358 pbc="T T T"
Mg       1.59276000       0.91973000       3.90015000       0.00000000      -0.00017387      -0.00000209      -1.61014611
Mg       0.00000000       1.83896000       1.30005000      -0.00000000       0.00017387       0.00000209      -1.61014611
