1
Lattice="2.026566447268961 -2.0265664472689617 2.024127014439972e-18 -2.026566447268961 4.474169055275395e-16 -2.0265664472689613 2.026566447268961 2.026566447268961 -6.4820444674335436e-18" Properties=species:S:1:pos:R:3:forces:R:3:energies:R:1 oqmd_id=8100 name=OQMD_8100 oqmd_composition=Al oqmd_formation_energy=0.00078878 oqmd_volume_per_atom=16.4826 potential_energy=-3.7095916308908734 formation_energy=0.0 oqmd_volume_peratom=16.4826 formula=Al volume_peratom=16.646101547829176 lattice_a=2.865997754778024 lattice_b=2.8659977547780247 lattice_c=2.865997754778025 angle_alpha=60.00000000000001 angle_beta=60.00000000000001 angle_gamma=60.00000000000002 symmetry_number=225 symmetry_symbol=Fm-3m energy=-3.7095916308908734 stress="-1.2828998724566727e-10 3.543022898955613e-17 6.550268485004024e-19 3.543022898955613e-17 -1.2828999736970946e-10 7.892908541239512e-19 6.550268485004024e-19 7.892908541239512e-19 -1.282899920007992e-10" free_energy=-3.7095916308908734 pbc="T T T"
Al       0.00000000       0.00000000       0.00000000       0.00000000       0.00000000       0.00000000      -3.70959163
