1
Lattice="1.804222 -1.804222 0.0 -1.804222 0.0 -1.804222 1.804222 1.804222 0.0" Properties=species:S:1:pos:R:3:forces:R:3:energies:R:1 oqmd_id=635950 name=OQMD_635950 oqmd_composition=Cu oqmd_formation_energy=0.0 oqmd_volume_per_atom=11.7463 formula=Cu potential_energy=-4.090353906508513 formation_energy=0.0 volume_peratom=11.746268343583896 lattice_a=2.55155522193191 lattice_b=2.55155522193191 lattice_c=2.55155522193191 angle_alpha=120.00000000000001 angle_beta=90.0 angle_gamma=120.00000000000001 oqmd_volume_peratom=11.7463 energy=-4.090353906508513 stress="-0.0032143395845075817 -9.356313044552033e-18 7.824699757204877e-18 -9.356313044552033e-18 -0.003214339584507572 -2.4029349062312955e-18 7.824699757204877e-18 -2.4029349062312955e-18 -0.003214339584507586" free_energy=-4.090353906508513 pbc="T T T"
Cu       0.00000000       0.00000000       0.00000000       0.00000000       0.00000000       0.00000000      -4.09035391
