2
Lattice="3.1918285910223303 2.349089678734124e-16 -1.80809978974465e-16 -1.5959142955111656 2.764204026032284 -5.432087975130758e-11 -3.0019166069773184e-16 -1.0540509128904344e-10 5.181119062765237" Properties=species:S:1:pos:R:3:forces:R:3:energies:R:1 oqmd_id=9226 name=OQMD_9226 oqmd_composition=Mg oqmd_formation_energy=0.00019360583333 oqmd_volume_per_atom=22.8493 potential_energy=-3.2204045426808476 formation_energy=0.0 oqmd_volume_peratom=22.8493 formula=Mg2 volume_peratom=22.856158164125254 lattice_a=3.1918280555427776 lattice_b=3.1918280555427776 lattice_c=5.181119062765237 angle_alpha=89.99999999801544 angle_beta=90.00000000198457 angle_gamma=60.00001109929556 symmetry_number=194 symmetry_symbol=P6_3/mmc energy=-3.2204045426808476 stress="1.4510670889844895e-08 -1.0168484602987457e-17 -3.220935963175317e-17 -1.0168484602987457e-17 -2.0752661605233463e-09 -3.2030616511557503e-12 -3.220935963175317e-17 -3.2030616511557503e-12 -5.3250340315250466e-09" free_energy=-3.2204045426808476 pbc="T T T"
Mg       1.59591430       0.92140278       3.88584014      -0.00000000      -0.00000034       0.00000066      -1.61020227
Mg       0.00000000       1.84280325       1.29528092       0.00000000       0.00000034      -0.00000066      -1.61020227
