8
Lattice="3.982758 0.0 0.0 0.0 3.982758 0.0 0.0 0.0 7.656101" Properties=species:S:1:pos:R:3:forces:R:3:energies:R:1 oqmd_id=NOTINOQMD_00002 name=NOTINOQMD_00002 oqmd_composition=Al6Cu2 oqmd_formation_energy=T oqmd_volume_per_atom=T formula=Al3Cu potential_energy=-31.257770526756936 formation_energy=-0.1027433995181477 volume_peratom=15.180480013552982 lattice_a=3.982758 lattice_b=3.982758 lattice_c=7.656101 angle_alpha=90.0 angle_beta=90.0 angle_gamma=90.0 oqmd_volume_peratom=T energy=-31.257770526756936 stress="0.003062100285027663 2.7176948691344634e-18 9.870387197913622e-18 2.7176948691344634e-18 0.0030621002850276533 4.4733210130459556e-18 9.870387197913622e-18 4.4733210130459556e-18 0.005635909000328115" free_energy=-31.257770526756936 pbc="T T T"
Al       0.00000000       1.99137900       5.95644657       0.00000000       0.00000000      -0.15415821      -3.88595067
Al      -1.99137900       0.00000000       5.95644657       0.00000000       0.00000000      -0.15415821      -3.88595067
Al       0.00000000       1.99137900      -5.95644657      -0.00000000      -0.00000000       0.15415821      -3.88595067
Al       1.99137900       0.00000000      -5.95644657      -0.00000000       0.00000000       0.15415821      -3.88595067
Al       0.00000000       0.00000000       3.82805050       0.00000000      -0.00000000      -0.00000000      -3.66734518
Al       1.99137900       1.99137900       3.82805050      -0.00000000       0.00000000      -0.00000000      -3.66734518
Cu       0.00000000       0.00000000       0.00000000       0.00000000      -0.00000000      -0.00000000      -4.18963874
Cu       1.99137900       1.99137900       0.00000000      -0.00000000      -0.00000000      -0.00000000      -4.18963874
