6
Lattice="-3.0306669591521196 3.0306669591521196 2.4324437519299593 3.0306669591521196 -3.0306669591521196 2.43244375192996 3.0306669591521196 3.0306669591521396 -2.4324437519299593" Properties=species:S:1:pos:R:3:forces:R:3:energies:R:1 oqmd_id=NOTINOQMD_00001 name=NOTINOQMD_00001 oqmd_composition=Al2Cu oqmd_formation_energy=T oqmd_volume_per_atom=T potential_energy=-24.208025389978832 formation_energy=-0.19813593424038403 oqmd_volume_peratom=T formula=Al4Cu2 volume_peratom=14.894570205533535 lattice_a=4.8648875038599195 lattice_b=4.928150468572965 lattice_c=4.9281504685729525 angle_alpha=75.89954774060556 angle_beta=60.42374571847261 angle_gamma=60.42374571847269 symmetry_number=140 symmetry_symbol=I4/mcm energy=-24.208025389978832 stress="-8.818100839817238e-09 5.825853791381922e-16 3.203078198504176e-17 5.825853791381922e-16 -8.818101630384861e-09 -2.1382079880633118e-17 3.203078198504176e-17 -2.1382079880633118e-17 1.211017546832879e-08" free_energy=-24.208025389978832 pbc="T T T"
Al       0.94928869       3.97995565       0.00000000      -0.00000029      -0.00000029       0.00000000      -3.95793956
Al      -0.94928869      -3.97995565      -0.00000000       0.00000029       0.00000029       0.00000000      -3.95793956
Al      -3.97995565       0.94928869      -0.00000000       0.00000029      -0.00000029       0.00000000      -3.95793956
Al       3.97995565      -0.94928869       0.00000000      -0.00000029       0.00000029       0.00000000      -3.95793956
Cu       0.00000000       0.00000000       1.21622188       0.00000000       0.00000000      -0.00000000      -4.18813357
Cu       0.00000000       0.00000000      -1.21622188       0.00000000       0.00000000       0.00000000      -4.18813357
