66
Lattice="8.531410217285156 0.0 5.223981999171107e-16 4.265705108642578 12.035551071166992 4.265705108642578 0.0 0.0 29.859935760498047" Properties=species:S:1:pos:R:3:move_mask:L:1:tags:I:1:DFT_forces:R:3:forces:R:3:magmoms:R:1 DFT_energy=-324.95789954 energy=-324.95789954 dipole="_JSON [[0.0, 0.0, 0.0]]" magmom=0.0 free_energy=-324.94823125 pbc="T T T"
Al       2.13285255       4.63274431      14.13014889  F        0       0.00000000       0.00000000       0.00000000      -0.00267700      -0.44535400      -0.74296600       0.00000000
Al       4.26570511       4.63274431      16.26300049  F        0       0.00000000       0.00000000       0.00000000       0.04746300      -0.24654300       0.02615700       0.00000000
Al       2.13285255       1.38503110      14.13014889  F        0       0.00000000       0.00000000       0.00000000      -0.00252200       0.49396400      -0.59227000       0.00000000
Al       4.26570511       1.38503110      11.99729633  F        0       0.00000000       0.00000000       0.00000000       0.00215900       1.14190200      -0.23464000       0.00000000
Ni       0.00000000       0.00000000      14.13014889  F        0       0.00000000       0.00000000       0.00000000       0.00928100      -0.03956600       0.13079300       0.00000000
Ni       2.13285255       0.00000000      11.99729633  F        0       0.00000000       0.00000000       0.00000000       0.00131600      -0.07930700       0.59536900       0.00000000
Pt       2.13285255       3.00888777      11.99729633  F        0       0.00000000       0.00000000       0.00000000       0.00528300      -1.62716400       1.30403900       0.00000000
Pt       4.26570511       3.00888777      14.13014889  F        0       0.00000000       0.00000000       0.00000000       0.02938400       0.37252100       0.13952000       0.00000000
Al       2.13600907       4.56965423      18.40109701  T        1      -0.01366200      -0.01640100      -0.00864800      -0.01366200      -0.01640100      -0.00864800       0.00000000
Al       4.10080590       4.61245991      20.38068821  T        1      -0.00357100      -0.00145800       0.01360300      -0.00357100      -0.00145800       0.01360300       0.00000000
Al       2.13013369       1.45344512      18.50562644  T        1       0.00527300      -0.00360300      -0.01832500       0.00527300      -0.00360300      -0.01832500       0.00000000
Al       4.26570511       1.38503110      16.26300049  F        0       0.00000000       0.00000000       0.00000000      -0.00658400       0.21772600      -0.35760700       0.00000000
Ni       8.53061740       0.06926472      18.27231188  T        1      -0.00063300      -0.00804500       0.00433500      -0.00063300      -0.00804500       0.00433500       0.00000000
Ni       2.13285255       0.00000000      16.26300049  F        0       0.00000000       0.00000000       0.00000000      -0.00214900       0.12929600      -0.39552900       0.00000000
Pt       2.13285255       3.00888777      16.26300049  F        0       0.00000000       0.00000000       0.00000000      -0.00293200       0.02430400       0.02727800       0.00000000
Pt       4.27540703       2.98285231      18.42553352  T        1      -0.00984200       0.00772200      -0.00663100      -0.00984200       0.00772200      -0.00663100       0.00000000
Al       4.26570511      10.65052032      16.26300049  F        0       0.00000000       0.00000000       0.00000000      -0.00824400      -0.42561900      -0.78026400       0.00000000
Al       6.39855766      10.65052032      18.39585304  F        0       0.00000000       0.00000000       0.00000000       0.00004500      -0.24975000       0.05463000       0.00000000
Al       4.26570511       7.40280676      16.26300049  F        0       0.00000000       0.00000000       0.00000000       0.00974500       0.50850100      -0.55153800       0.00000000
Al       6.39855766       7.40280676      14.13014889  F        0       0.00000000       0.00000000       0.00000000      -0.00393700       1.11571500      -0.24177000       0.00000000
Ni       2.13285255       6.01777554      16.26300049  F        0       0.00000000       0.00000000       0.00000000       0.00349900       0.02775200      -0.08134800       0.00000000
Ni       4.26570511       6.01777554      14.13014889  F        0       0.00000000       0.00000000       0.00000000       0.00628100      -0.06816600       0.56943800       0.00000000
Pt       4.26570511       9.02666378      14.13014889  F        0       0.00000000       0.00000000       0.00000000      -0.00652700      -1.59756400       1.30923000       0.00000000
Pt       6.39855766       9.02666378      16.26300049  F        0       0.00000000       0.00000000       0.00000000       0.00544300       0.40362400       0.10309500       0.00000000
Al       4.27157057      10.55825083      20.63630748  T        1      -0.01418100       0.00363300       0.00995400      -0.01418100       0.00363300       0.00995400       0.00000000
Al       6.39640954      10.67808385      22.56585360  T        1       0.00701400      -0.01442100       0.02074200       0.00701400      -0.01442100       0.02074200       0.00000000
Al       4.25343023       7.49452598      20.59519230  T        1      -0.02146600       0.00023100      -0.01308700      -0.02146600       0.00023100      -0.01308700       0.00000000
Al       6.39855766       7.40280676      18.39585304  F        0       0.00000000       0.00000000       0.00000000       0.00328700       0.06416500       0.00658000       0.00000000
Ni      10.66924855       6.08222618      20.38887918  T        1      -0.00424500       0.00768000       0.00358900      -0.00424500       0.00768000       0.00358900       0.00000000
Ni       4.26570511       6.01777554      18.39585304  F        0       0.00000000       0.00000000       0.00000000       0.18370000       0.07897100      -0.19047200       0.00000000
Pt       4.26570511       9.02666378      18.39585304  F        0       0.00000000       0.00000000       0.00000000       0.01949800       0.09860500      -0.06080100       0.00000000
Pt       6.39936202       9.02091763      20.54147720  T        1       0.00208500      -0.01416700      -0.00377300       0.00208500      -0.01416700      -0.00377300       0.00000000
Al       6.39855766       4.63274431      14.13014889  F        0       0.00000000       0.00000000       0.00000000      -0.00221800      -0.42237400      -0.75755000       0.00000000
Al       8.53141022       4.63274431      16.26300049  F        0       0.00000000       0.00000000       0.00000000      -0.04873800      -0.24385300       0.02398500       0.00000000
Al       6.39855766       1.38503110      14.13014889  F        0       0.00000000       0.00000000       0.00000000      -0.00263500       0.50441700      -0.57035900       0.00000000
Al       8.53141022       1.38503110      11.99729633  F        0       0.00000000       0.00000000       0.00000000      -0.00695300       1.14259100      -0.23455900       0.00000000
Ni       4.26570511       0.00000000      14.13014889  F        0       0.00000000       0.00000000       0.00000000       0.00133600      -0.04157600       0.13103600       0.00000000
Ni       6.39855766       0.00000000      11.99729633  F        0       0.00000000       0.00000000       0.00000000       0.00127800      -0.05737000       0.58464600       0.00000000
Pt       6.39855766       3.00888777      11.99729633  F        0       0.00000000       0.00000000       0.00000000       0.00509900      -1.61710800       1.30165700       0.00000000
Pt       8.53141022       3.00888777      14.13014889  F        0       0.00000000       0.00000000       0.00000000      -0.01658000       0.36896400       0.13775200       0.00000000
Al       6.39717746       4.55279119      18.52098982  T        1       0.00748600      -0.00687300      -0.00310300       0.00748600      -0.00687300      -0.00310300       0.00000000
Al       8.70581920       4.61687723      20.38079558  T        1      -0.00236000      -0.02268100      -0.00199000      -0.00236000      -0.02268100      -0.00199000       0.00000000
Al       6.39844843       1.44608003      18.50580511  T        1      -0.00206200       0.00158800      -0.00703900      -0.00206200       0.00158800      -0.00703900       0.00000000
Al       8.53141022       1.38503110      16.26300049  F        0       0.00000000       0.00000000       0.00000000       0.00719700       0.22088600      -0.35855100       0.00000000
Ni       4.26110207       0.06898293      18.27298986  T        1       0.00801300      -0.00550000       0.00322000       0.00801300      -0.00550000       0.00322000       0.00000000
Ni       6.39855766       0.00000000      16.26300049  F        0       0.00000000       0.00000000       0.00000000       0.00129000       0.09731200      -0.37932700       0.00000000
Pt       6.39855766       3.00888777      16.26300049  F        0       0.00000000       0.00000000       0.00000000      -0.00414200       0.04677000       0.06253600       0.00000000
Pt       8.52044493       2.98697926      18.42424093  T        1       0.00635000       0.01084700       0.00426300       0.00635000       0.01084700       0.00426300       0.00000000
Al       8.53141022      10.65052032      16.26300049  F        0       0.00000000       0.00000000       0.00000000       0.00481800      -0.42471300      -0.77848300       0.00000000
Al      10.66426277      10.65052032      18.39585304  F        0       0.00000000       0.00000000       0.00000000      -0.00265800      -0.24701800       0.05401100       0.00000000
Al       8.53141022       7.40280676      16.26300049  F        0       0.00000000       0.00000000       0.00000000      -0.01466400       0.50707400      -0.55086900       0.00000000
Al      10.66426277       7.40280676      14.13014889  F        0       0.00000000       0.00000000       0.00000000      -0.00299900       1.14214900      -0.22196300       0.00000000
Ni       6.39855766       6.01777554      16.26300049  F        0       0.00000000       0.00000000       0.00000000       0.00317600      -0.04177400       0.23741700       0.00000000
Ni       8.53141022       6.01777554      14.13014889  F        0       0.00000000       0.00000000       0.00000000      -0.00208900      -0.06724500       0.56821800       0.00000000
Pt       8.53141022       9.02666378      14.13014889  F        0       0.00000000       0.00000000       0.00000000       0.01418400      -1.59470800       1.30653700       0.00000000
Pt      10.66426277       9.02666378      16.26300049  F        0       0.00000000       0.00000000       0.00000000       0.00694400       0.35926600       0.10364400       0.00000000
Al       8.52716309      10.55853345      20.63668591  T        1      -0.00370900       0.00115800       0.00894700      -0.00370900       0.00115800       0.00894700       0.00000000
Al      10.66143357      10.68382882      22.57181777  T        1       0.00664500      -0.00056900       0.01729800       0.00664500      -0.00056900       0.01729800       0.00000000
Al       8.55082892       7.49359915      20.59161639  T        1      -0.00094100       0.00574200      -0.01024400      -0.00094100       0.00574200      -0.01024400       0.00000000
Al      10.66426277       7.40280676      18.39585304  F        0       0.00000000       0.00000000       0.00000000       0.00286100       0.34835300      -0.44190800       0.00000000
Ni       6.39813902       6.01592314      20.61240499  T        1       0.01083100       0.00672100       0.00614300       0.01083100       0.00672100       0.00614300       0.00000000
Ni       8.53141022       6.01777554      18.39585304  F        0       0.00000000       0.00000000       0.00000000      -0.18542300       0.07275900      -0.19757000       0.00000000
Pt       8.53141022       9.02666378      18.39585304  F        0       0.00000000       0.00000000       0.00000000      -0.02212000       0.09699600      -0.06338200       0.00000000
Pt      10.66458918       9.03936769      20.55636590  T        1       0.00632700      -0.00178500      -0.00207400       0.00632700      -0.00178500      -0.00207400       0.00000000
N        6.44443185       5.26338117      23.51403740  T        2      -0.01348500      -0.00651500       0.03718600      -0.01348500      -0.00651500       0.03718600       0.00000000
N        6.42080101       5.51666347      22.40108796  T        2       0.00235500       0.00888700      -0.04820500       0.00235500       0.00888700      -0.04820500       0.00000000
66
Lattice="8.531410217285156 0.0 5.223981999171107e-16 4.265705108642578 12.035551071166992 4.265705108642578 0.0 0.0 29.859935760498047" Properties=species:S:1:pos:R:3:move_mask:L:1:tags:I:1:DFT_forces:R:3:forces:R:3 DFT_energy=-324.8077217 energy=-324.8077217 pbc="T T T"
Al       2.13285255       4.63274431      14.13014889  F        0       0.00000000       0.00000000       0.00000000       0.00000000       0.00000000       0.00000000
Al       4.26570511       4.63274431      16.26300049  F        0       0.00000000       0.00000000       0.00000000       0.00000000       0.00000000       0.00000000
Al       2.13285255       1.38503110      14.13014889  F        0       0.00000000       0.00000000       0.00000000       0.00000000       0.00000000       0.00000000
Al       4.26570511       1.38503110      11.99729633  F        0       0.00000000       0.00000000       0.00000000       0.00000000       0.00000000       0.00000000
Ni       0.00000000       0.00000000      14.13014889  F        0       0.00000000       0.00000000       0.00000000       0.00000000       0.00000000       0.00000000
Ni       2.13285255       0.00000000      11.99729633  F        0       0.00000000       0.00000000       0.00000000       0.00000000       0.00000000       0.00000000
Pt       2.13285255       3.00888777      11.99729633  F        0       0.00000000       0.00000000       0.00000000       0.00000000       0.00000000       0.00000000
Pt       4.26570511       3.00888777      14.13014889  F        0       0.00000000       0.00000000       0.00000000       0.00000000       0.00000000       0.00000000
Al       2.13145855       4.55505255      18.44378995  T        1       0.00248200       0.00260700      -0.01042900       0.00248200       0.00260700      -0.01042900
Al       4.15595039       4.63455660      20.40791663  T        1      -0.02326900      -0.00246200       0.00006500      -0.02326900      -0.00246200       0.00006500
Al       2.13093129       1.45982287      18.49684346  T        1       0.00097800      -0.00171700      -0.00147700       0.00097800      -0.00171700      -0.00147700
Al       4.26570511       1.38503110      16.26300049  F        0       0.00000000       0.00000000       0.00000000       0.00000000       0.00000000       0.00000000
Ni       8.53030369       0.07146778      18.27418419  T        1       0.00321900       0.00929700      -0.00531800       0.00321900       0.00929700      -0.00531800
Ni       2.13285255       0.00000000      16.26300049  F        0       0.00000000       0.00000000       0.00000000       0.00000000       0.00000000       0.00000000
Pt       2.13285255       3.00888777      16.26300049  F        0       0.00000000       0.00000000       0.00000000       0.00000000       0.00000000       0.00000000
Pt       4.27583687       2.99922572      18.42391864  T        1       0.00825600       0.00977700       0.00091200       0.00825600       0.00977700       0.00091200
Al       4.26570511      10.65052032      16.26300049  F        0       0.00000000       0.00000000       0.00000000       0.00000000       0.00000000       0.00000000
Al       6.39855766      10.65052032      18.39585304  F        0       0.00000000       0.00000000       0.00000000       0.00000000       0.00000000       0.00000000
Al       4.26570511       7.40280676      16.26300049  F        0       0.00000000       0.00000000       0.00000000       0.00000000       0.00000000       0.00000000
Al       6.39855766       7.40280676      14.13014889  F        0       0.00000000       0.00000000       0.00000000       0.00000000       0.00000000       0.00000000
Ni       2.13285255       6.01777554      16.26300049  F        0       0.00000000       0.00000000       0.00000000       0.00000000       0.00000000       0.00000000
Ni       4.26570511       6.01777554      14.13014889  F        0       0.00000000       0.00000000       0.00000000       0.00000000       0.00000000       0.00000000
Pt       4.26570511       9.02666378      14.13014889  F        0       0.00000000       0.00000000       0.00000000       0.00000000       0.00000000       0.00000000
Pt       6.39855766       9.02666378      16.26300049  F        0       0.00000000       0.00000000       0.00000000       0.00000000       0.00000000       0.00000000
Al       4.26901060      10.55891606      20.63788908  T        1      -0.00179800      -0.00471100       0.00282600      -0.00179800      -0.00471100       0.00282600
Al       6.39770797      10.67996989      22.57029173  T        1       0.00007800      -0.00174400      -0.00035300       0.00007800      -0.00174400      -0.00035300
Al       4.24830940       7.49144187      20.60604412  T        1       0.00367300       0.01044900      -0.00481200       0.00367300       0.01044900      -0.00481200
Al       6.39855766       7.40280676      18.39585304  F        0       0.00000000       0.00000000       0.00000000       0.00000000       0.00000000       0.00000000
Ni      10.66238404       6.08153288      20.39346260  T        1       0.00096500      -0.00746700       0.00284300       0.00096500      -0.00746700       0.00284300
Ni       4.26570511       6.01777554      18.39585304  F        0       0.00000000       0.00000000       0.00000000       0.00000000       0.00000000       0.00000000
Pt       4.26570511       9.02666378      18.39585304  F        0       0.00000000       0.00000000       0.00000000       0.00000000       0.00000000       0.00000000
Pt       6.39608220       9.01670837      20.55084874  T        1       0.00034300       0.00231900      -0.01061300       0.00034300       0.00231900      -0.01061300
Al       6.39855766       4.63274431      14.13014889  F        0       0.00000000       0.00000000       0.00000000       0.00000000       0.00000000       0.00000000
Al       8.53141022       4.63274431      16.26300049  F        0       0.00000000       0.00000000       0.00000000       0.00000000       0.00000000       0.00000000
Al       6.39855766       1.38503110      14.13014889  F        0       0.00000000       0.00000000       0.00000000       0.00000000       0.00000000       0.00000000
Al       8.53141022       1.38503110      11.99729633  F        0       0.00000000       0.00000000       0.00000000       0.00000000       0.00000000       0.00000000
Ni       4.26570511       0.00000000      14.13014889  F        0       0.00000000       0.00000000       0.00000000       0.00000000       0.00000000       0.00000000
Ni       6.39855766       0.00000000      11.99729633  F        0       0.00000000       0.00000000       0.00000000       0.00000000       0.00000000       0.00000000
Pt       6.39855766       3.00888777      11.99729633  F        0       0.00000000       0.00000000       0.00000000       0.00000000       0.00000000       0.00000000
Pt       8.53141022       3.00888777      14.13014889  F        0       0.00000000       0.00000000       0.00000000       0.00000000       0.00000000       0.00000000
Al       6.39701399       4.55778423      18.56883410  T        1      -0.00179400       0.02277200       0.03852400      -0.00179400       0.02277200       0.03852400
Al       8.63785958       4.63494371      20.40856909  T        1       0.02425400      -0.00295100      -0.00139000       0.02425400      -0.00295100      -0.00139000
Al       6.39653937       1.45172008      18.50242186  T        1       0.00287800       0.00661000       0.00137900       0.00287800       0.00661000       0.00137900
Al       8.53141022       1.38503110      16.26300049  F        0       0.00000000       0.00000000       0.00000000       0.00000000       0.00000000       0.00000000
Ni       4.26285715       0.07170412      18.27430839  T        1      -0.00288700       0.00638400      -0.00522200      -0.00288700       0.00638400      -0.00522200
Ni       6.39855766       0.00000000      16.26300049  F        0       0.00000000       0.00000000       0.00000000       0.00000000       0.00000000       0.00000000
Pt       6.39855766       3.00888777      16.26300049  F        0       0.00000000       0.00000000       0.00000000       0.00000000       0.00000000       0.00000000
Pt       8.51692919       2.99980063      18.42458855  T        1      -0.01205700       0.00641500       0.00106000      -0.01205700       0.00641500       0.00106000
Al       8.53141022      10.65052032      16.26300049  F        0       0.00000000       0.00000000       0.00000000       0.00000000       0.00000000       0.00000000
Al      10.66426277      10.65052032      18.39585304  F        0       0.00000000       0.00000000       0.00000000       0.00000000       0.00000000       0.00000000
Al       8.53141022       7.40280676      16.26300049  F        0       0.00000000       0.00000000       0.00000000       0.00000000       0.00000000       0.00000000
Al      10.66426277       7.40280676      14.13014889  F        0       0.00000000       0.00000000       0.00000000       0.00000000       0.00000000       0.00000000
Ni       6.39855766       6.01777554      16.26300049  F        0       0.00000000       0.00000000       0.00000000       0.00000000       0.00000000       0.00000000
Ni       8.53141022       6.01777554      14.13014889  F        0       0.00000000       0.00000000       0.00000000       0.00000000       0.00000000       0.00000000
Pt       8.53141022       9.02666378      14.13014889  F        0       0.00000000       0.00000000       0.00000000       0.00000000       0.00000000       0.00000000
Pt      10.66426277       9.02666378      16.26300049  F        0       0.00000000       0.00000000       0.00000000       0.00000000       0.00000000       0.00000000
Al       8.52499548      10.55839168      20.63804206  T        1       0.00195300      -0.00338100       0.00234000       0.00195300      -0.00338100       0.00234000
Al      10.66290919      10.68720731      22.57435529  T        1      -0.00076600      -0.00655900      -0.00196000      -0.00076600      -0.00655900      -0.00196000
Al       8.54555338       7.49120246      20.60574823  T        1      -0.00556200       0.01066200      -0.00377100      -0.00556200       0.01066200      -0.00377100
Al      10.66426277       7.40280676      18.39585304  F        0       0.00000000       0.00000000       0.00000000       0.00000000       0.00000000       0.00000000
Ni       6.39600680       6.03788803      20.69186259  T        1       0.00116400      -0.08172100       0.34039100       0.00116400      -0.08172100       0.34039100
Ni       8.53141022       6.01777554      18.39585304  F        0       0.00000000       0.00000000       0.00000000       0.00000000       0.00000000       0.00000000
Pt       8.53141022       9.02666378      18.39585304  F        0       0.00000000       0.00000000       0.00000000       0.00000000       0.00000000       0.00000000
Pt      10.66191115       9.03647090      20.55649731  T        1       0.00167800       0.00946300       0.00244200       0.00167800       0.00946300       0.00244200
N        6.40129599       5.44602954      23.87363345  T        2      -0.00305800       0.08088900      -0.34378800      -0.00305800       0.08088900      -0.34378800
N        6.39803857       5.65494513      22.75535125  T        2      -0.00046900       0.02942800      -0.35485000      -0.00046900       0.02942800      -0.35485000
66
Lattice="8.531410217285156 0.0 5.223981999171107e-16 4.265705108642578 12.035551071166992 4.265705108642578 0.0 0.0 29.859935760498047" Properties=species:S:1:pos:R:3:move_mask:L:1:tags:I:1:DFT_forces:R:3:forces:R:3 DFT_energy=-324.70184324 energy=-324.70184324 pbc="T T T"
Al       2.13285255       4.63274431      14.13014889  F        0       0.00000000       0.00000000       0.00000000       0.00000000       0.00000000       0.00000000
Al       4.26570511       4.63274431      16.26300049  F        0       0.00000000       0.00000000       0.00000000       0.00000000       0.00000000       0.00000000
Al       2.13285255       1.38503110      14.13014889  F        0       0.00000000       0.00000000       0.00000000       0.00000000       0.00000000       0.00000000
Al       4.26570511       1.38503110      11.99729633  F        0       0.00000000       0.00000000       0.00000000       0.00000000       0.00000000       0.00000000
Ni       0.00000000       0.00000000      14.13014889  F        0       0.00000000       0.00000000       0.00000000       0.00000000       0.00000000       0.00000000
Ni       2.13285255       0.00000000      11.99729633  F        0       0.00000000       0.00000000       0.00000000       0.00000000       0.00000000       0.00000000
Pt       2.13285255       3.00888777      11.99729633  F        0       0.00000000       0.00000000       0.00000000       0.00000000       0.00000000       0.00000000
Pt       4.26570511       3.00888777      14.13014889  F        0       0.00000000       0.00000000       0.00000000       0.00000000       0.00000000       0.00000000
Al       2.13173390       4.55391163      18.44974564  T        1      -0.00060500      -0.00558500      -0.00686000      -0.00060500      -0.00558500      -0.00686000
Al       4.16945122       4.63780065      20.40822813  T        1       0.00441200      -0.00192900       0.00192600       0.00441200      -0.00192900       0.00192600
Al       2.13074657       1.45821629      18.49936679  T        1       0.00090600      -0.00002500      -0.00079500       0.00090600      -0.00002500      -0.00079500
Al       4.26570511       1.38503110      16.26300049  F        0       0.00000000       0.00000000       0.00000000       0.00000000       0.00000000       0.00000000
Ni       8.53074398       0.07031268      18.27487207  T        1       0.00016400       0.00389900      -0.00616300       0.00016400       0.00389900      -0.00616300
Ni       2.13285255       0.00000000      16.26300049  F        0       0.00000000       0.00000000       0.00000000       0.00000000       0.00000000       0.00000000
Pt       2.13285255       3.00888777      16.26300049  F        0       0.00000000       0.00000000       0.00000000       0.00000000       0.00000000       0.00000000
Pt       4.27113622       2.99513829      18.42125294  T        1       0.00042500       0.00015100      -0.00292900       0.00042500       0.00015100      -0.00292900
Al       4.26570511      10.65052032      16.26300049  F        0       0.00000000       0.00000000       0.00000000       0.00000000       0.00000000       0.00000000
Al       6.39855766      10.65052032      18.39585304  F        0       0.00000000       0.00000000       0.00000000       0.00000000       0.00000000       0.00000000
Al       4.26570511       7.40280676      16.26300049  F        0       0.00000000       0.00000000       0.00000000       0.00000000       0.00000000       0.00000000
Al       6.39855766       7.40280676      14.13014889  F        0       0.00000000       0.00000000       0.00000000       0.00000000       0.00000000       0.00000000
Ni       2.13285255       6.01777554      16.26300049  F        0       0.00000000       0.00000000       0.00000000       0.00000000       0.00000000       0.00000000
Ni       4.26570511       6.01777554      14.13014889  F        0       0.00000000       0.00000000       0.00000000       0.00000000       0.00000000       0.00000000
Pt       4.26570511       9.02666378      14.13014889  F        0       0.00000000       0.00000000       0.00000000       0.00000000       0.00000000       0.00000000
Pt       6.39855766       9.02666378      16.26300049  F        0       0.00000000       0.00000000       0.00000000       0.00000000       0.00000000       0.00000000
Al       4.26856043      10.55845963      20.63810201  T        1       0.00290100       0.00012600      -0.00064400       0.00290100       0.00012600      -0.00064400
Al       6.39734219      10.67977961      22.57045673  T        1       0.00064200      -0.00112900      -0.00176500       0.00064200      -0.00112900      -0.00176500
Al       4.24669374       7.48791215      20.60725538  T        1       0.00617000       0.00322000       0.00161500       0.00617000       0.00322000       0.00161500
Al       6.39855766       7.40280676      18.39585304  F        0       0.00000000       0.00000000       0.00000000       0.00000000       0.00000000       0.00000000
Ni      10.66233396       6.08074715      20.39953374  T        1       0.00183100       0.00162400      -0.01168500       0.00183100       0.00162400      -0.01168500
Ni       4.26570511       6.01777554      18.39585304  F        0       0.00000000       0.00000000       0.00000000       0.00000000       0.00000000       0.00000000
Pt       4.26570511       9.02666378      18.39585304  F        0       0.00000000       0.00000000       0.00000000       0.00000000       0.00000000       0.00000000
Pt       6.39601108       9.01454882      20.55544488  T        1      -0.00062500       0.00220400      -0.00457700      -0.00062500       0.00220400      -0.00457700
Al       6.39855766       4.63274431      14.13014889  F        0       0.00000000       0.00000000       0.00000000       0.00000000       0.00000000       0.00000000
Al       8.53141022       4.63274431      16.26300049  F        0       0.00000000       0.00000000       0.00000000       0.00000000       0.00000000       0.00000000