52
Lattice="13.089539527893066 0.0 0.9785467982292175 1.030279278755188 13.048930168151855 0.9785467982292175 0.0 0.0 35.486968994140625" Properties=species:S:1:pos:R:3:move_mask:L:1:tags:I:1:DFT_forces:R:3:forces:R:3:magmoms:R:1 DFT_energy=-52.16880355 energy=-52.16880355 dipole="_JSON [[0.0, 0.0, 0.0]]" magmom=0.0 free_energy=-52.18090499 pbc="T T T"
Hg       3.99333739       1.68310833      19.10120583  F        0       0.00000000       0.00000000       0.00000000       0.10121200      -0.00984800       0.01737000       0.00000000
Hg       2.22836018       0.05199206      14.42069721  F        0       0.00000000       0.00000000       0.00000000      -0.01827100      -0.12929400      -0.18349100       0.00000000
Hg       6.00182505       1.55669553      21.41458383  T        1      -0.01344700      -0.00435500       0.00818900      -0.01344700      -0.00435500       0.00818900       0.00000000
Hg       4.63966846       6.29514503      17.25022507  F        0       0.00000000       0.00000000       0.00000000       0.13490200       0.03662100       0.05155600       0.00000000
Hg       0.58207726       4.57896328      16.42113304  F        0       0.00000000       0.00000000       0.00000000      -0.12140600       0.01525900       0.08486700       0.00000000
Hg       2.20927040       6.03215003      21.26885174  T        1       0.00006200      -0.01208800      -0.00539100       0.00006200      -0.01208800      -0.00539100       0.00000000
Hg       0.71326882       2.66653490      14.08087921  F        0       0.00000000       0.00000000       0.00000000      -0.13254000      -0.04860800      -0.17160600       0.00000000
Hg       2.47824621       4.29765129      18.76138687  F        0       0.00000000       0.00000000       0.00000000      -0.14694900      -0.05349400       0.06304400       0.00000000
Sr       3.91851401       3.13686371      15.66555214  F        0       0.00000000       0.00000000       0.00000000       0.14354800       0.22408900       0.09145800       0.00000000
Sr       5.56056881       4.85154352      20.30069359  T        1      -0.00822600       0.00137000       0.01207100      -0.00822600       0.00137000       0.01207100       0.00000000
Sr       2.48231456       2.55421294      22.10992386  T        1      -0.00826500       0.00418300      -0.01269700      -0.00826500       0.00418300      -0.01269700       0.00000000
Sr       0.78809237       1.21277964      17.51653290  F        0       0.00000000       0.00000000       0.00000000       0.03797700      -0.05595700       0.07080300       0.00000000
Hg       4.50847721       8.20757294      19.59047890  F        0       0.00000000       0.00000000       0.00000000       0.15707900      -0.05408000      -0.06106200       0.00000000
Hg       2.74349976       6.57645702      14.90997124  F        0       0.00000000       0.00000000       0.00000000      -0.01235800      -0.11852600      -0.16936500       0.00000000
Hg       6.41666064       8.11846699      22.00157878  T        1       0.00632200      -0.00901500       0.00775500       0.00632200      -0.00901500       0.00775500       0.00000000
Hg       5.15480852      12.81960964      17.73949814  F        0       0.00000000       0.00000000       0.00000000       0.11674100       0.05295900       0.05587000       0.00000000
Hg       1.09721696      11.10342789      16.91040611  F        0       0.00000000       0.00000000       0.00000000      -0.12157700       0.02024200       0.07767600       0.00000000
Hg       2.78117749      12.51465108      21.82644974  T        1       0.00270000      -0.03265300      -0.00209200       0.00270000      -0.03265300      -0.00209200       0.00000000
Hg       1.22840846       9.19099998      14.57015324  F        0       0.00000000       0.00000000       0.00000000      -0.12387500      -0.03821600      -0.15378100       0.00000000
Hg       2.99338579      10.82211590      19.25065994  F        0       0.00000000       0.00000000       0.00000000      -0.16918700      -0.00298600       0.06264700       0.00000000
Sr       4.43365335       9.66132832      16.15482521  F        0       0.00000000       0.00000000       0.00000000       0.14810900       0.23477300       0.08468600       0.00000000
Sr       6.08152125      11.37068140      20.81519479  T        1      -0.01024300       0.00403500       0.00900900      -0.01024300       0.00403500       0.00900900       0.00000000
Sr       2.97100619       9.11240546      22.39152543  T        1       0.00244900       0.01309300       0.00255100       0.00244900       0.01309300       0.00255100       0.00000000
Sr       1.30323195       7.73724461      18.00580597  F        0       0.00000000       0.00000000       0.00000000       0.01816800      -0.03785000       0.06142800       0.00000000
Hg      10.53810692       1.68310833      19.59047890  F        0       0.00000000       0.00000000       0.00000000       0.15539500      -0.05597000      -0.05826800       0.00000000
Hg       8.77312946       0.05199206      14.90997124  F        0       0.00000000       0.00000000       0.00000000      -0.01078800      -0.12139400      -0.17861800       0.00000000
Hg      12.49253388       1.59248780      21.97455839  T        1      -0.02871300       0.00919400       0.00882000      -0.02871300       0.00919400       0.00882000       0.00000000
Hg      11.18443871       6.29514503      17.73949814  F        0       0.00000000       0.00000000       0.00000000       0.11903000       0.03541800       0.04481300       0.00000000
Hg       7.12684727       4.57896328      16.91040611  F        0       0.00000000       0.00000000       0.00000000      -0.13206300       0.01744300       0.09445800       0.00000000
Hg       8.75904818       5.96851821      21.84315952  T        1      -0.01249900       0.01838700       0.01156600      -0.01249900       0.01838700       0.01156600       0.00000000
Hg       7.25803852       2.66653490      14.57015324  F        0       0.00000000       0.00000000       0.00000000      -0.12670600      -0.05391100      -0.15562800       0.00000000
Hg       9.02301598       4.29765129      19.25065994  F        0       0.00000000       0.00000000       0.00000000      -0.16933800      -0.00507700       0.07279600       0.00000000
Sr      10.46328354       3.13686371      16.15482521  F        0       0.00000000       0.00000000       0.00000000       0.16011300       0.22627400       0.08141600       0.00000000
Sr      12.08624295       4.87415135      20.81724304  T        1      -0.00943700      -0.00624400       0.01430500      -0.00943700      -0.00624400       0.01430500       0.00000000
Sr       9.03077137       2.58264813      22.40754447  T        1      -0.01319000      -0.01340900      -0.00754200      -0.01319000      -0.01340900      -0.00754200       0.00000000
Sr       7.33286190       1.21277964      18.00580597  F        0       0.00000000       0.00000000       0.00000000       0.04034200      -0.06403700       0.04930400       0.00000000
Hg      11.05324650       8.20757294      20.07975197  F        0       0.00000000       0.00000000       0.00000000       0.16632700      -0.05165000      -0.03928900       0.00000000
Hg       9.28827000       6.57645702      15.39924431  F        0       0.00000000       0.00000000       0.00000000      -0.00269500      -0.11847600      -0.17723700       0.00000000
Hg      12.93933368       8.13210920      22.55363447  T        1      -0.00972700      -0.00192200      -0.00305400      -0.00972700      -0.00192200      -0.00305400       0.00000000
Hg      11.69957829      12.81960964      18.22877121  F        0       0.00000000       0.00000000       0.00000000       0.12739700       0.03826100       0.05518400       0.00000000
Hg       7.64198685      11.10342789      17.39967918  F        0       0.00000000       0.00000000       0.00000000      -0.10675400       0.02132800       0.08073600       0.00000000
Hg       9.34676576      12.46914819      22.35896161  T        1      -0.01656200       0.01166200      -0.00346000      -0.01656200       0.01166200      -0.00346000       0.00000000
Hg       7.77317810       9.19099998      15.05942631  F        0       0.00000000       0.00000000       0.00000000      -0.12713000      -0.04641800      -0.15250700       0.00000000
Hg       9.53815556      10.82211590      19.73993301  F        0       0.00000000       0.00000000       0.00000000      -0.17220000      -0.00775100       0.07889400       0.00000000
Sr      10.97842312       9.66132832      16.64409828  F        0       0.00000000       0.00000000       0.00000000       0.15500500       0.23410800       0.08413800       0.00000000
Sr      12.61483805      11.37899480      21.33388014  T        1      -0.00569300      -0.00677400       0.00225800      -0.00569300      -0.00677400       0.00225800       0.00000000
Sr       9.50855728       9.09306108      22.88767993  T        1      -0.00333100      -0.01100900      -0.00745400      -0.00333100      -0.01100900      -0.00745400       0.00000000
Sr       7.84800196       7.73724461      18.49507904  F        0       0.00000000       0.00000000       0.00000000       0.04699200      -0.05352800       0.07705300       0.00000000
N        2.04960635       3.82528229      24.29841888  T        2      -0.00169900       0.01434800      -0.00723400      -0.00169900       0.01434800      -0.00723400       0.00000000
O        3.00851311       3.02171202      24.55813099  T        2      -0.01757500       0.03380400       0.02837400      -0.01757500       0.03380400       0.02837400       0.00000000
O        1.91860694       4.80785450      25.35542141  T        2      -0.00537200      -0.02625900       0.00214600      -0.00537200      -0.02625900       0.00214600       0.00000000
H        1.17296412       5.35070682      25.01521514  T        2       0.01794500      -0.01605200       0.00253200       0.01794500      -0.01605200       0.00253200       0.00000000
52
Lattice="13.089539527893066 0.0 0.9785467982292175 1.030279278755188 13.048930168151855 0.9785467982292175 0.0 0.0 35.486968994140625" Properties=species:S:1:pos:R:3:move_mask:L:1:tags:I:1:DFT_forces:R:3:forces:R:3 DFT_energy=-52.16236168 energy=-52.16236168 pbc="T T T"
Hg       3.99333739       1.68310833      19.10120583  F        0       0.00000000       0.00000000       0.00000000       0.00000000       0.00000000       0.00000000
Hg       2.22836018       0.05199206      14.42069721  F        0       0.00000000       0.00000000       0.00000000       0.00000000       0.00000000       0.00000000
Hg       5.95365247       1.59171321      21.45387967  T        1      -0.01362000      -0.00479600      -0.00370800      -0.01362000      -0.00479600      -0.00370800
Hg       4.63966846       6.29514503      17.25022507  F        0       0.00000000       0.00000000       0.00000000       0.00000000       0.00000000       0.00000000
Hg       0.58207726       4.57896328      16.42113304  F        0       0.00000000       0.00000000       0.00000000       0.00000000       0.00000000       0.00000000
Hg       2.17830509       5.96441755      21.33678338  T        1       0.00503500       0.00867500      -0.00054900       0.00503500       0.00867500      -0.00054900
Hg       0.71326882       2.66653490      14.08087921  F        0       0.00000000       0.00000000       0.00000000       0.00000000       0.00000000       0.00000000
Hg       2.47824621       4.29765129      18.76138687  F        0       0.00000000       0.00000000       0.00000000       0.00000000       0.00000000       0.00000000
Sr       3.91851401       3.13686371      15.66555214  F        0       0.00000000       0.00000000       0.00000000       0.00000000       0.00000000       0.00000000
Sr       5.51853402       4.86733535      20.34138938  T        1      -0.00407300       0.00124700       0.00064400      -0.00407300       0.00124700       0.00064400
Sr       2.44602138       2.51576619      22.16677324  T        1       0.00013700      -0.00294000      -0.02511400       0.00013700      -0.00294000      -0.02511400
Sr       0.78809237       1.21277964      17.51653290  F        0       0.00000000       0.00000000       0.00000000       0.00000000       0.00000000       0.00000000
Hg       4.50847721       8.20757294      19.59047890  F        0       0.00000000       0.00000000       0.00000000       0.00000000       0.00000000       0.00000000
Hg       2.74349976       6.57645702      14.90997124  F        0       0.00000000       0.00000000       0.00000000       0.00000000       0.00000000       0.00000000
Hg       6.38675669       8.11302545      22.03002538  T        1      -0.00809300       0.00193300      -0.00234700      -0.00809300       0.00193300      -0.00234700
Hg       5.15480852      12.81960964      17.73949814  F        0       0.00000000       0.00000000       0.00000000       0.00000000       0.00000000       0.00000000
Hg       1.09721696      11.10342789      16.91040611  F        0       0.00000000       0.00000000       0.00000000       0.00000000       0.00000000       0.00000000
Hg       2.72225782      12.50105237      21.80579644  T        1       0.00178200      -0.00638600       0.00464300       0.00178200      -0.00638600       0.00464300
Hg       1.22840846       9.19099998      14.57015324  F        0       0.00000000       0.00000000       0.00000000       0.00000000       0.00000000       0.00000000
Hg       2.99338579      10.82211590      19.25065994  F        0       0.00000000       0.00000000       0.00000000       0.00000000       0.00000000       0.00000000
Sr       4.43365335       9.66132832      16.15482521  F        0       0.00000000       0.00000000       0.00000000       0.00000000       0.00000000       0.00000000
Sr       6.05434183      11.37486705      20.83070881  T        1       0.00329100       0.00080500       0.00211400       0.00329100       0.00080500       0.00211400
Sr       2.93817937       9.09852093      22.37561834  T        1       0.00579200       0.00631200       0.00397000       0.00579200       0.00631200       0.00397000
Sr       1.30323195       7.73724461      18.00580597  F        0       0.00000000       0.00000000       0.00000000       0.00000000       0.00000000       0.00000000
Hg      10.53810692       1.68310833      19.59047890  F        0       0.00000000       0.00000000       0.00000000       0.00000000       0.00000000       0.00000000
Hg       8.77312946       0.05199206      14.90997124  F        0       0.00000000       0.00000000       0.00000000       0.00000000       0.00000000       0.00000000
Hg      12.44953776       1.60557012      21.99910626  T        1      -0.01317400      -0.00164600       0.00387500      -0.01317400      -0.00164600       0.00387500
Hg      11.18443871       6.29514503      17.73949814  F        0       0.00000000       0.00000000       0.00000000       0.00000000       0.00000000       0.00000000
Hg       7.12684727       4.57896328      16.91040611  F        0       0.00000000       0.00000000       0.00000000       0.00000000       0.00000000       0.00000000
Hg       8.69224689       5.95040772      21.86339877  T        1      -0.00298400      -0.00327500      -0.00139700      -0.00298400      -0.00327500      -0.00139700
Hg       7.25803852       2.66653490      14.57015324  F        0       0.00000000       0.00000000       0.00000000       0.00000000       0.00000000       0.00000000
Hg       9.02301598       4.29765129      19.25065994  F        0       0.00000000       0.00000000       0.00000000       0.00000000       0.00000000       0.00000000
Sr      10.46328354       3.13686371      16.15482521  F        0       0.00000000       0.00000000       0.00000000       0.00000000       0.00000000       0.00000000
Sr      12.05746569       4.88100215      20.85059434  T        1       0.00712800       0.00146900       0.00316800       0.00712800       0.00146900       0.00316800
Sr       8.99411264       2.56408426      22.40241673  T        1       0.00678200      -0.00062700       0.00426400       0.00678200      -0.00062700       0.00426400
Sr       7.33286190       1.21277964      18.00580597  F        0       0.00000000       0.00000000       0.00000000       0.00000000       0.00000000       0.00000000
Hg      11.05324650       8.20757294      20.07975197  F        0       0.00000000       0.00000000       0.00000000       0.00000000       0.00000000       0.00000000
Hg       9.28827000       6.57645702      15.39924431  F        0       0.00000000       0.00000000       0.00000000       0.00000000       0.00000000       0.00000000
Hg      12.93011681       8.11609152      22.51829592  T        1      -0.00205100      -0.00100800       0.00128500      -0.00205100      -0.00100800       0.00128500
Hg      11.69957829      12.81960964      18.22877121  F        0       0.00000000       0.00000000       0.00000000       0.00000000       0.00000000       0.00000000
Hg       7.64198685      11.10342789      17.39967918  F        0       0.00000000       0.00000000       0.00000000       0.00000000       0.00000000       0.00000000
Hg       9.26704937      12.46609351      22.35812951  T        1       0.00312600       0.00009400      -0.01270400       0.00312600       0.00009400      -0.01270400
Hg       7.77317810       9.19099998      15.05942631  F        0       0.00000000       0.00000000       0.00000000       0.00000000       0.00000000       0.00000000
Hg       9.53815556      10.82211590      19.73993301  F        0       0.00000000       0.00000000       0.00000000       0.00000000       0.00000000       0.00000000
Sr      10.97842312       9.66132832      16.64409828  F        0       0.00000000       0.00000000       0.00000000       0.00000000       0.00000000       0.00000000
Sr      12.58825951      11.38753929      21.34255332  T        1      -0.00268500       0.00129500      -0.00176500      -0.00268500       0.00129500      -0.00176500
Sr       9.48541023       9.08053404      22.87500443  T        1       0.00282100      -0.00614100       0.00294500       0.00282100      -0.00614100       0.00294500
Sr       7.84800196       7.73724461      18.49507904  F        0       0.00000000       0.00000000       0.00000000       0.00000000       0.00000000       0.00000000
N        2.57958879       2.94032179      24.76550890  T        2      -0.01960800       0.02365800      -0.01812700      -0.01960800       0.02365800      -0.01812700
O        3.24972430       1.89601546      24.46834303  T        2       0.01415600      -0.02971800       0.01094000       0.01415600      -0.02971800       0.01094000
O        2.92051080       3.36756552      26.10717427  T        2      -0.00259600       0.00786600       0.00315100      -0.00259600       0.00786600       0.00315100
H        2.35268940       4.16062271      26.21007458  T        2      -0.01714000       0.02081000       0.00407200      -0.01714000       0.02081000       0.00407200
52
Lattice="13.089539527893066 0.0 0.9785467982292175 1.030279278755188 13.048930168151855 0.9785467982292175 0.0 0.0 35.486968994140625" Properties=species:S:1:pos:R:3:move_mask:L:1:tags:I:1:DFT_forces:R:3:forces:R:3 DFT_energy=-52.08976798 energy=-52.08976798 pbc="T T T"
Hg       3.99333739       1.68310833      19.10120583  F        0       0.00000000       0.00000000       0.00000000       0.00000000       0.00000000       0.00000000
Hg       2.22836018       0.05199206      14.42069721  F        0       0.00000000       0.00000000       0.00000000       0.00000000       0.00000000       0.00000000
Hg       6.02358184       1.57941403      21.39109260  T        1      -0.01356500       0.00480500      -0.00502400      -0.01356500       0.00480500      -0.00502400
Hg       4.63966846       6.29514503      17.25022507  F        0       0.00000000       0.00000000       0.00000000       0.00000000       0.00000000       0.00000000
Hg       0.58207726       4.57896328      16.42113304  F        0       0.00000000       0.00000000       0.00000000       0.00000000       0.00000000       0.00000000
Hg       2.19007614       5.82231807      21.45380393  T        1       0.00121200      -0.00966000       0.00940200       0.00121200      -0.00966000       0.00940200
Hg       0.71326882       2.66653490      14.08087921  F        0       0.00000000       0.00000000       0.00000000       0.00000000       0.00000000       0.00000000
Hg       2.47824621       4.29765129      18.76138687  F        0       0.00000000       0.00000000       0.00000000       0.00000000       0.00000000       0.00000000
Sr       3.91851401       3.13686371      15.66555214  F        0       0.00000000       0.00000000       0.00000000       0.00000000       0.00000000       0.00000000
Sr       5.50718141       4.85901250      20.35507799  T        1      -0.00332600      -0.00189000       0.00083300      -0.00332600      -0.00189000       0.00083300
Sr       2.56437339       2.33098761      22.26292504  T        1      -0.00279600       0.01542900      -0.01959100      -0.00279600       0.01542900      -0.01959100
Sr       0.78809237       1.21277964      17.51653290  F        0       0.00000000       0.00000000       0.00000000       0.00000000       0.00000000       0.00000000
Hg       4.50847721       8.20757294      19.59047890  F        0       0.00000000       0.00000000       0.00000000       0.00000000       0.00000000       0.00000000
Hg       2.74349976       6.57645702      14.90997124  F        0       0.00000000       0.00000000       0.00000000       0.00000000       0.00000000       0.00000000
Hg       6.38054722       8.07256411      22.03813312  T        1       0.00259200       0.00041100       0.00116200       0.00259200       0.00041100       0.00116200
Hg       5.15480852      12.81960964      17.73949814  F        0       0.00000000       0.00000000       0.00000000       0.00000000       0.00000000       0.00000000
Hg       1.09721696      11.10342789      16.91040611  F        0       0.00000000       0.00000000       0.00000000       0.00000000       0.00000000       0.00000000
Hg       2.66401325      12.46156095      21.78855277  T        1      -0.00488400      -0.00107100      -0.00621100      -0.00488400      -0.00107100      -0.00621100
Hg       1.22840846       9.19099998      14.57015324  F        0       0.00000000       0.00000000       0.00000000       0.00000000       0.00000000       0.00000000
Hg       2.99338579      10.82211590      19.25065994  F        0       0.00000000       0.00000000       0.00000000       0.00000000       0.00000000       0.00000000
Sr       4.43365335       9.66132832      16.15482521  F        0       0.00000000       0.00000000       0.00000000       0.00000000       0.00000000       0.00000000
Sr       6.05723583      11.36273396      20.83724034  T        1      -0.00264500       0.00096600      -0.00033800      -0.00264500       0.00096600      -0.00033800
Sr       2.93338434       9.04668821      22.37234882  T        1       0.00285700       0.00093000      -0.00033300       0.00285700       0.00093000      -0.00033300
Sr       1.30323195       7.73724461      18.00580597  F        0       0.00000000       0.00000000       0.00000000       0.00000000       0.00000000       0.00000000
Hg      10.53810692       1.68310833      19.59047890  F        0       0.00000000       0.00000000       0.00000000       0.00000000       0.00000000       0.00000000
Hg       8.77312946       0.05199206      14.90997124  F        0       0.00000000       0.00000000       0.00000000       0.00000000       0.00000000       0.00000000
Hg      12.47524837       1.60393153      22.03183862  T        1      -0.01049200       0.00700600      -0.00276900      -0.01049200       0.00700600      -0.00276900
Hg      11.18443871       6.29514503      17.73949814  F        0       0.00000000       0.00000000       0.00000000       0.00000000       0.00000000       0.00000000
Hg       7.12684727       4.57896328      16.91040611  F        0       0.00000000       0.00000000       0.00000000       0.00000000       0.00000000       0.00000000
Hg       8.71019888       5.94008302      21.86054149  T        1       0.00251300      -0.00184100      -0.00362800       0.00251300      -0.00184100      -0.00362800
Hg       7.25803852       2.66653490      14.57015324  F        0       0.00000000       0.00000000       0.00000000       0.00000000       0.00000000       0.00000000
Hg       9.02301598       4.29765129      19.25065994  F        0       0.00000000       0.00000000       0.00000000       0.00000000       0.00000000       0.00000000
Sr      10.46328354       3.13686371      16.15482521  F        0       0.00000000       0.00000000       0.00000000       0.00000000       0.00000000       0.00000000
Sr      12.08549577       4.85688648      20.85084697  T        1      -0.00552300       0.00185400       0.00108200      -0.00552300       0.00185400       0.00108200
Sr       9.02263727       2.55729722      22.41949235  T        1       0.00666200       0.00280800      -0.00252100       0.00666200       0.00280800      -0.00252100
Sr       7.33286190       1.21277964      18.00580597  F        0       0.00000000       0.00000000       0.00000000       0.00000000       0.00000000       0.00000000
Hg      11.05324650       8.20757294      20.07975197  F        0       0.00000000       0.00000000       0.00000000       0.00000000       0.00000000       0.00000000
Hg       9.28827000       6.57645702      15.39924431  F        0       0.00000000       0.00000000       0.00000000       0.00000000       0.00000000       0.00000000
Hg      12.93706331       8.04060355      22.53304625  T        1      -0.00539700       0.00254100       0.00263800      -0.00539700       0.00254100       0.00263800
Hg      11.69957829      12.81960964      18.22877121  F        0       0.00000000       0.00000000       0.00000000       0.00000000       0.00000000       0.00000000
Hg       7.64198685      11.10342789      17.39967918  F        0       0.00000000       0.00000000       0.00000000       0.00000000       0.00000000       0.00000000
Hg       9.32869784      12.46977899      22.32757749  T        1       0.00763200       0.00056300       0.00684500       0.00763200       0.00056300       0.00684500
Hg       7.77317810       9.19099998      15.05942631  F        0       0.00000000       0.00000000       0.00000000       0.00000000       0.00000000       0.00000000
Hg       9.53815556      10.82211590      19.73993301  F        0       0.00000000       0.00000000       0.00000000       0.00000000       0.00000000       0.00000000
Sr      10.97842312       9.66132832      16.64409828  F        0       0.00000000       0.00000000       0.00000000       0.00000000       0.00000000       0.00000000
Sr      12.59950946      11.34846935      21.32282350  T        1      -0.00593600       0.00372900      -0.00350700      -0.00593600       0.00372900      -0.00350700
Sr       9.48709474       9.07226580      22.87280464  T        1      -0.00339100      -0.00169100       0.00176000      -0.00339100      -0.00169100       0.00176000
Sr       7.84800196       7.73724461      18.49507904  F        0       0.00000000       0.00000000       0.00000000       0.00000000       0.00000000       0.00000000
N        3.15774942       1.96793071      24.87321559  T        2      -0.01938200       0.04800400      -0.00595400      -0.01938200       0.04800400      -0.00595400
O        3.60439132       1.02676171      24.13498779  T        2      -0.00870000      -0.00082700       0.01277400      -0.00870000      -0.00082700       0.01277400
O        3.92310352       2.00149907      26.11259387  T        2      -0.02494900       0.00531000       0.00098100      -0.02494900       0.00531000       0.00098100
H        3.49440285       2.74291308      26.59134468  T        2      -0.01284600       0.00295200      -0.01589800      -0.01284600       0.00295200      -0.01589800
52
Lattice="13.089539527893066 0.0 0.9785467982292175 1.030279278755188 13.048930168151855 0.9785467982292175 0.0 0.0 35.486968994140625" Properties=species:S:1:pos:R:3:move_mask:L:1:tags:I:1:DFT_forces:R:3:forces:R:3 DFT_energy=-51.75080035 energy=-51.75080035 pbc="T T T"
Hg       3.99333739       1.68310833      19.10120583  F        0       0.00000000       0.00000000       0.00000000       0.00000000       0.00000000       0.00000000
Hg       2.22836018       0.05199206      14.42069721  F        0       0.00000000       0.00000000       0.00000000       0.00000000       0.00000000       0.00000000
Hg       6.03767672       1.60178940      21.39936168  T        1       0.02064900       0.00408700      -0.01329800       0.02064900       0.00408700      -0.01329800
Hg       4.63966846       6.29514503      17.25022507  F        0       0.00000000       0.00000000       0.00000000       0.00000000       0.00000000       0.00000000
Hg       0.58207726       4.57896328      16.42113304  F        0       0.00000000       0.00000000       0.00000000       0.00000000       0.00000000       0.00000000
Hg       2.18778989       5.70703291      21.55896684  T        1      -0.00158700      -0.02434700       0.02009300      -0.00158700      -0.02434700       0.02009300
Hg       0.71326882       2.66653490      14.08087921  F        0       0.00000000       0.00000000       0.00000000       0.00000000       0.00000000       0.00000000
Hg       2.47824621       4.29765129      18.76138687  F        0       0.00000000       0.00000000       0.00000000       0.00000000       0.00000000       0.00000000
Sr       3.91851401       3.13686371      15.66555214  F        0       0.00000000       0.00000000       0.00000000       0.00000000       0.00000000       0.00000000
Sr       5.47828593       4.85897830      20.40581383  T        1      -0.00376100      -0.00200500      -0.00001900      -0.00376100      -0.00200500      -0.00001900