50
Lattice="10.912516593933105 -4.8205472208854785e-18 -0.03936275467276573 -4.3163323402404785 8.693294525146484 -6.867990016937256 -0.0 5.1043636887225e-15 41.680294036865234" Properties=species:S:1:pos:R:3:move_mask:L:1:tags:I:1:DFT_forces:R:3:forces:R:3:magmoms:R:1 DFT_energy=-130.0324365 energy=-130.0324365 dipole="_JSON [[0.0, 0.0, 0.0]]" magmom=0.0 free_energy=-130.01554172 pbc="T T T"
Ag       2.67129850       8.34990978      16.39827538  F        0       0.00000000       0.00000000       0.00000000       0.12042700       0.12626200       0.05335300       0.00000000
Ag       3.83782554       4.24051142      22.46985435  T        1       0.00049500      -0.00945600      -0.01139200       0.00049500      -0.00945600      -0.01139200       0.00000000
Ag       1.56690717       5.09246254      19.85195160  F        0       0.00000000       0.00000000       0.00000000       0.05118800      -0.02042400      -0.13102400       0.00000000
Ag       4.10138702       2.00671148      25.51482582  T        1      -0.02633600       0.00961000      -0.01839800      -0.02633600       0.00961000      -0.01839800       0.00000000
Ag       4.51287889       4.69003248      19.30474091  F        0       0.00000000       0.00000000       0.00000000      -0.11750400       0.01120600       0.10642800       0.00000000
Ag       2.10574389       8.01149720      19.34725428  T        1       0.02563800      -0.02293700       0.02847500       0.02563800      -0.02293700       0.02847500       0.00000000
Ag      -2.05396891       6.87776709      15.83408737  F        0       0.00000000       0.00000000       0.00000000      -0.18664700       0.05654900      -0.16220700       0.00000000
Ag       0.10419738       2.53111982      22.74143982  F        0       0.00000000       0.00000000       0.00000000       0.11155900      -0.15099400       0.17924300       0.00000000
Ag       1.31053627       5.56777763      22.62715721  T        1       0.03480500      -0.00835100       0.01464500       0.03480500      -0.00835100       0.01464500       0.00000000
Ag       3.36933184       1.41314435      22.75841713  F        0       0.00000000       0.00000000       0.00000000      -0.21846200       0.03808400      -0.01902600       0.00000000
Ag       4.92927837       7.63044596      18.87937164  T        1       0.02195100      -0.00635100       0.00773900       0.02195100      -0.00635100       0.00773900       0.00000000
Ag       7.75407076       3.62027812      19.24840164  F        0       0.00000000       0.00000000       0.00000000      -0.03447500      -0.04895900      -0.06066600       0.00000000
Ag       0.09467599       2.52555656      19.26357460  F        0       0.00000000       0.00000000       0.00000000      -0.01797200       0.09811300       0.14385500       0.00000000
Ag      -1.62880886       6.09364080      18.75426865  T        1       0.00068400      -0.03082100       0.02037300       0.00068400      -0.03082100       0.02037300       0.00000000
Ag       5.60609150       7.97114754      15.80989742  F        0       0.00000000       0.00000000       0.00000000       0.01527500       0.18736000       0.09491700       0.00000000
Ag       8.17533588       2.53205919      22.03480721  T        1      -0.00949100      -0.01038600       0.00091800      -0.00949100      -0.01038600       0.00091800       0.00000000
Te       3.59918451       6.95642042      21.35005188  T        1      -0.01692100      -0.01408000       0.00121100      -0.01692100      -0.01408000       0.00121100       0.00000000
Te       5.59039307       2.58844328      20.93971825  F        0       0.00000000       0.00000000       0.00000000      -0.15611900      -0.00587900      -0.00590200       0.00000000
Te       0.07588447       7.97772551      17.52540398  F        0       0.00000000       0.00000000       0.00000000      -0.17141600       0.13061100       0.00726800       0.00000000
Te       2.04023433       3.61287594      24.57645798  T        1       0.02894600       0.00361400       0.00782100       0.02894600       0.00361400       0.00782100       0.00000000
Te       1.11850584       0.39277598      20.97942162  F        0       0.00000000       0.00000000       0.00000000       0.23454100      -0.02704000      -0.01855500       0.00000000
Te      -1.06868708       4.81639290      21.16823387  T        1       0.01270100      -0.01034600       0.04621400       0.01270100      -0.01034600       0.04621400       0.00000000
Te       6.68627548       5.86634731      17.52574539  F        0       0.00000000       0.00000000       0.00000000       0.17374700      -0.06256600       0.00724900       0.00000000
Te       8.82451248       1.42500544      24.50287819  T        1       0.00764600       0.03600300       0.01447200       0.00764600       0.03600300       0.01447200       0.00000000
Ag       2.67129850       8.34990978       9.45156097  F        0       0.00000000       0.00000000       0.00000000      -0.15638200       0.21961900       0.27046300       0.00000000
Ag       4.82946491       4.00326204      16.35891342  F        0       0.00000000       0.00000000       0.00000000       0.08038700      -0.13885000      -0.19614200       0.00000000
Ag       1.56690717       5.09246254      12.90523720  F        0       0.00000000       0.00000000       0.00000000      -0.01175100       0.09748600       0.17890600       0.00000000
Ag       3.72507334       0.74581546      19.81258965  F        0       0.00000000       0.00000000       0.00000000       0.05961200      -0.05208900      -0.08687000       0.00000000
Ag       4.51287889       4.69003248      12.35802460  F        0       0.00000000       0.00000000       0.00000000       0.30701800       0.04197700       0.31565000       0.00000000
Ag       6.67104483       0.34338507      19.26537704  F        0       0.00000000       0.00000000       0.00000000       0.00971200      -0.06017200       0.06011300       0.00000000
Ag      -2.05396891       6.87776709       8.88737202  F        0       0.00000000       0.00000000       0.00000000      -0.24348400       0.36767500       0.28970200       0.00000000
Ag       0.10419738       2.53111982      15.79472446  F        0       0.00000000       0.00000000       0.00000000       0.09549400      -0.26650800      -0.12739300       0.00000000
Ag       1.21116555       5.75979185      15.85106373  F        0       0.00000000       0.00000000       0.00000000       0.10814200      -0.09687900       0.05067900       0.00000000
Ag       3.36933184       1.41314435      15.81170082  F        0       0.00000000       0.00000000       0.00000000      -0.10516700      -0.16531300      -0.19048300       0.00000000
Ag       5.59590435       7.96692514      12.34104824  F        0       0.00000000       0.00000000       0.00000000       0.14269800      -0.11635000      -0.11133600       0.00000000
Ag       7.75407076       3.62027812      12.30168533  F        0       0.00000000       0.00000000       0.00000000      -0.24954400       0.32790500       0.27025100       0.00000000
Ag       0.09467599       2.52555656      12.31685829  F        0       0.00000000       0.00000000       0.00000000       0.06431300      -0.12748300       0.64210600       0.00000000
Ag      -2.06349015       6.87220383      12.35622120  F        0       0.00000000       0.00000000       0.00000000      -0.19620100      -0.01954000      -0.05420200       0.00000000
Ag       5.60609150       7.97114754       8.86318207  F        0       0.00000000       0.00000000       0.00000000       0.44506400       0.22924300       0.04430200       0.00000000
Ag       7.76425791       3.62450027      15.77053452  F        0       0.00000000       0.00000000       0.00000000      -0.23476100      -0.14229100      -0.11589600       0.00000000
Te       3.43222690       6.93509054      14.03236485  F        0       0.00000000       0.00000000       0.00000000      -0.10781900      -0.15159600      -0.43318300       0.00000000
Te       5.59039307       2.58844328      13.99300289  F        0       0.00000000       0.00000000       0.00000000      -0.00262000      -0.04420700      -0.14215600       0.00000000
Te       0.07588447       7.97772551      10.57868862  F        0       0.00000000       0.00000000       0.00000000       0.20286100      -0.21384400      -0.35173200       0.00000000
Te       2.23405075       3.63107848      17.48604202  F        0       0.00000000       0.00000000       0.00000000       0.03081700       0.23661300       0.10568700       0.00000000
Te       1.11850584       0.39277598      14.03270531  F        0       0.00000000       0.00000000       0.00000000      -0.25411000       0.23813700      -0.00259400       0.00000000
Te      -1.03966033       4.73942327      14.07206821  F        0       0.00000000       0.00000000       0.00000000       0.28210600      -0.19055900      -0.48086200       0.00000000
Te       6.68627548       5.86634731      10.57902908  F        0       0.00000000       0.00000000       0.00000000      -0.03255800      -0.14015700      -0.10613500       0.00000000
Te       8.84444141       1.51970005      17.48638153  F        0       0.00000000       0.00000000       0.00000000      -0.13838500      -0.14050000      -0.15536400       0.00000000
C        5.11842537       2.50949717      27.30157471  T        2       0.02075500       0.03518000       0.01576600       0.02075500       0.03518000       0.01576600       0.00000000
O        5.40355396       2.89926600      28.34737968  T        2      -0.00045700       0.00368400       0.00371400      -0.00045700       0.00368400       0.00371400       0.00000000
50
Lattice="10.912516593933105 -4.8205472208854785e-18 -0.03936275467276573 -4.3163323402404785 8.693294525146484 -6.867990016937256 -0.0 5.1043636887225e-15 41.680294036865234" Properties=species:S:1:pos:R:3:move_mask:L:1:tags:I:1:DFT_forces:R:3:forces:R:3 DFT_energy=-129.92836334 energy=-129.92836334 pbc="T T T"
Ag       2.67129850       8.34990978      16.39827538  F        0       0.00000000       0.00000000       0.00000000       0.00000000       0.00000000       0.00000000
Ag       3.86349249       4.22389118      22.51352545  T        1       0.01482500      -0.00845500      -0.01792600       0.01482500      -0.00845500      -0.01792600
Ag       1.56690717       5.09246254      19.85195160  F        0       0.00000000       0.00000000       0.00000000       0.00000000       0.00000000       0.00000000
Ag       4.02450657       1.91833959      25.74031104  T        1       0.09905500       0.05514400       0.13728700       0.09905500       0.05514400       0.13728700
Ag       4.51287889       4.69003248      19.30474091  F        0       0.00000000       0.00000000       0.00000000       0.00000000       0.00000000       0.00000000
Ag       2.09696341       8.10373923      19.36386883  T        1      -0.01253200       0.00383700      -0.00510300      -0.01253200       0.00383700      -0.00510300
Ag      -2.05396891       6.87776709      15.83408737  F        0       0.00000000       0.00000000       0.00000000       0.00000000       0.00000000       0.00000000
Ag       0.10419738       2.53111982      22.74143982  F        0       0.00000000       0.00000000       0.00000000       0.00000000       0.00000000       0.00000000
Ag       1.31703178       5.49907566      22.64655952  T        1      -0.01616700      -0.01521300      -0.00785500      -0.01616700      -0.01521300      -0.00785500
Ag       3.36933184       1.41314435      22.75841713  F        0       0.00000000       0.00000000       0.00000000       0.00000000       0.00000000       0.00000000
Ag       4.91493046       7.62573734      18.87095243  T        1      -0.00069300      -0.00060700      -0.00532900      -0.00069300      -0.00060700      -0.00532900
Ag       7.75407076       3.62027812      19.24840164  F        0       0.00000000       0.00000000       0.00000000       0.00000000       0.00000000       0.00000000
Ag       0.09467599       2.52555656      19.26357460  F        0       0.00000000       0.00000000       0.00000000       0.00000000       0.00000000       0.00000000
Ag      -1.56746249       6.02535537      18.73859023  T        1       0.00327200      -0.00383800      -0.00102100       0.00327200      -0.00383800      -0.00102100
Ag       5.60609150       7.97114754      15.80989742  F        0       0.00000000       0.00000000       0.00000000       0.00000000       0.00000000       0.00000000
Ag       8.16335293       2.48766565      22.04503450  T        1      -0.00168000      -0.00243800       0.00440900      -0.00168000      -0.00243800       0.00440900
Te       3.55339693       6.91881927      21.32666724  T        1       0.00063500      -0.00131000      -0.00581400       0.00063500      -0.00131000      -0.00581400
Te       5.59039307       2.58844328      20.93971825  F        0       0.00000000       0.00000000       0.00000000       0.00000000       0.00000000       0.00000000
Te       0.07588447       7.97772551      17.52540398  F        0       0.00000000       0.00000000       0.00000000       0.00000000       0.00000000       0.00000000
Te       2.08866692       3.59681095      24.62317460  T        1       0.03510100      -0.05993600      -0.00914400       0.03510100      -0.05993600      -0.00914400
Te       1.11850584       0.39277598      20.97942162  F        0       0.00000000       0.00000000       0.00000000       0.00000000       0.00000000       0.00000000
Te      -1.08395698       4.78526584      21.20136627  T        1       0.01274100       0.00714300       0.01184200       0.01274100       0.00714300       0.01184200
Te       6.68627548       5.86634731      17.52574539  F        0       0.00000000       0.00000000       0.00000000       0.00000000       0.00000000       0.00000000
Te       8.81301458       1.43586271      24.53602945  T        1      -0.00673900       0.00154800       0.00426500      -0.00673900       0.00154800       0.00426500
Ag       2.67129850       8.34990978       9.45156097  F        0       0.00000000       0.00000000       0.00000000       0.00000000       0.00000000       0.00000000
Ag       4.82946491       4.00326204      16.35891342  F        0       0.00000000       0.00000000       0.00000000       0.00000000       0.00000000       0.00000000
Ag       1.56690717       5.09246254      12.90523720  F        0       0.00000000       0.00000000       0.00000000       0.00000000       0.00000000       0.00000000
Ag       3.72507334       0.74581546      19.81258965  F        0       0.00000000       0.00000000       0.00000000       0.00000000       0.00000000       0.00000000
Ag       4.51287889       4.69003248      12.35802460  F        0       0.00000000       0.00000000       0.00000000       0.00000000       0.00000000       0.00000000
Ag       6.67104483       0.34338507      19.26537704  F        0       0.00000000       0.00000000       0.00000000       0.00000000       0.00000000       0.00000000
Ag      -2.05396891       6.87776709       8.88737202  F        0       0.00000000       0.00000000       0.00000000       0.00000000       0.00000000       0.00000000
Ag       0.10419738       2.53111982      15.79472446  F        0       0.00000000       0.00000000       0.00000000       0.00000000       0.00000000       0.00000000
Ag       1.21116555       5.75979185      15.85106373  F        0       0.00000000       0.00000000       0.00000000       0.00000000       0.00000000       0.00000000
Ag       3.36933184       1.41314435      15.81170082  F        0       0.00000000       0.00000000       0.00000000       0.00000000       0.00000000       0.00000000
Ag       5.59590435       7.96692514      12.34104824  F        0       0.00000000       0.00000000       0.00000000       0.00000000       0.00000000       0.00000000
Ag       7.75407076       3.62027812      12.30168533  F        0       0.00000000       0.00000000       0.00000000       0.00000000       0.00000000       0.00000000
Ag       0.09467599       2.52555656      12.31685829  F        0       0.00000000       0.00000000       0.00000000       0.00000000       0.00000000       0.00000000
Ag      -2.06349015       6.87220383      12.35622120  F        0       0.00000000       0.00000000       0.00000000       0.00000000       0.00000000       0.00000000
Ag       5.60609150       7.97114754       8.86318207  F        0       0.00000000       0.00000000       0.00000000       0.00000000       0.00000000       0.00000000
Ag       7.76425791       3.62450027      15.77053452  F        0       0.00000000       0.00000000       0.00000000       0.00000000       0.00000000       0.00000000
Te       3.43222690       6.93509054      14.03236485  F        0       0.00000000       0.00000000       0.00000000       0.00000000       0.00000000       0.00000000
Te       5.59039307       2.58844328      13.99300289  F        0       0.00000000       0.00000000       0.00000000       0.00000000       0.00000000       0.00000000
Te       0.07588447       7.97772551      10.57868862  F        0       0.00000000       0.00000000       0.00000000       0.00000000       0.00000000       0.00000000
Te       2.23405075       3.63107848      17.48604202  F        0       0.00000000       0.00000000       0.00000000       0.00000000       0.00000000       0.00000000
Te       1.11850584       0.39277598      14.03270531  F        0       0.00000000       0.00000000       0.00000000       0.00000000       0.00000000       0.00000000
Te      -1.03966033       4.73942327      14.07206821  F        0       0.00000000       0.00000000       0.00000000       0.00000000       0.00000000       0.00000000
Te       6.68627548       5.86634731      10.57902908  F        0       0.00000000       0.00000000       0.00000000       0.00000000       0.00000000       0.00000000
Te       8.84444141       1.51970005      17.48638153  F        0       0.00000000       0.00000000       0.00000000       0.00000000       0.00000000       0.00000000
C        4.87809383       2.76481534      27.76764089  T        2      -0.05482700      -0.07040900      -0.20115300      -0.05482700      -0.07040900      -0.20115300
O        5.11973026       3.45414954      28.65736369  T        2      -0.08536200      -0.12714900      -0.20042600      -0.08536200      -0.12714900      -0.20042600
50
Lattice="10.912516593933105 -4.8205472208854785e-18 -0.03936275467276573 -4.3163323402404785 8.693294525146484 -6.867990016937256 -0.0 5.1043636887225e-15 41.680294036865234" Properties=species:S:1:pos:R:3:move_mask:L:1:tags:I:1:DFT_forces:R:3:forces:R:3 DFT_energy=-129.80104792 energy=-129.80104792 pbc="T T T"
Ag       2.67129850       8.34990978      16.39827538  F        0       0.00000000       0.00000000       0.00000000       0.00000000       0.00000000       0.00000000
Ag       3.85423976       4.21068879      22.53093667  T        1       0.01101700      -0.00749200      -0.00804600       0.01101700      -0.00749200      -0.00804600
Ag       1.56690717       5.09246254      19.85195160  F        0       0.00000000       0.00000000       0.00000000       0.00000000       0.00000000       0.00000000
Ag       3.89127166       1.85249879      25.57371677  T        1       0.02394700       0.01233800       0.01145900       0.02394700       0.01233800       0.01145900
Ag       4.51287889       4.69003248      19.30474091  F        0       0.00000000       0.00000000       0.00000000       0.00000000       0.00000000       0.00000000
Ag       2.09740439       8.10756375      19.36710491  T        1      -0.00204400       0.00465100       0.00090700      -0.00204400       0.00465100       0.00090700
Ag      -2.05396891       6.87776709      15.83408737  F        0       0.00000000       0.00000000       0.00000000       0.00000000       0.00000000       0.00000000
Ag       0.10419738       2.53111982      22.74143982  F        0       0.00000000       0.00000000       0.00000000       0.00000000       0.00000000       0.00000000
Ag       1.31915052       5.52616264      22.63293812  T        1      -0.01427400      -0.00398800      -0.00919400      -0.01427400      -0.00398800      -0.00919400
Ag       3.36933184       1.41314435      22.75841713  F        0       0.00000000       0.00000000       0.00000000       0.00000000       0.00000000       0.00000000
Ag       4.91649232       7.62702799      18.87004671  T        1      -0.00653100      -0.00647100      -0.00019600      -0.00653100      -0.00647100      -0.00019600
Ag       7.75407076       3.62027812      19.24840164  F        0       0.00000000       0.00000000       0.00000000       0.00000000       0.00000000       0.00000000
Ag       0.09467599       2.52555656      19.26357460  F        0       0.00000000       0.00000000       0.00000000       0.00000000       0.00000000       0.00000000
Ag      -1.57216228       6.02501299      18.73571936  T        1       0.00079500       0.00471600       0.00152800       0.00079500       0.00471600       0.00152800
Ag       5.60609150       7.97114754      15.80989742  F        0       0.00000000       0.00000000       0.00000000       0.00000000       0.00000000       0.00000000
Ag       8.16314283       2.48922058      22.04550967  T        1       0.00329700       0.00191600       0.00543600       0.00329700       0.00191600       0.00543600
Te       3.55894991       6.91371788      21.32290346  T        1       0.00864600       0.00070900      -0.00802500       0.00864600       0.00070900      -0.00802500
Te       5.59039307       2.58844328      20.93971825  F        0       0.00000000       0.00000000       0.00000000       0.00000000       0.00000000       0.00000000
Te       0.07588447       7.97772551      17.52540398  F        0       0.00000000       0.00000000       0.00000000       0.00000000       0.00000000       0.00000000
Te       2.03566681       3.66685722      24.64567442  T        1       0.00885800      -0.02006300      -0.00023900       0.00885800      -0.02006300      -0.00023900
Te       1.11850584       0.39277598      20.97942162  F        0       0.00000000       0.00000000       0.00000000       0.00000000       0.00000000       0.00000000
Te      -1.08364276       4.78516436      21.19458711  T        1       0.00770700      -0.00180700       0.00464700       0.00770700      -0.00180700       0.00464700
Te       6.68627548       5.86634731      17.52574539  F        0       0.00000000       0.00000000       0.00000000       0.00000000       0.00000000       0.00000000
Te       8.81239137       1.43287240      24.53373126  T        1      -0.00811500       0.00566200       0.00096800      -0.00811500       0.00566200       0.00096800
Ag       2.67129850       8.34990978       9.45156097  F        0       0.00000000       0.00000000       0.00000000       0.00000000       0.00000000       0.00000000
Ag       4.82946491       4.00326204      16.35891342  F        0       0.00000000       0.00000000       0.00000000       0.00000000       0.00000000       0.00000000
Ag       1.56690717       5.09246254      12.90523720  F        0       0.00000000       0.00000000       0.00000000       0.00000000       0.00000000       0.00000000
Ag       3.72507334       0.74581546      19.81258965  F        0       0.00000000       0.00000000       0.00000000       0.00000000       0.00000000       0.00000000
Ag       4.51287889       4.69003248      12.35802460  F        0       0.00000000       0.00000000       0.00000000       0.00000000       0.00000000       0.00000000
Ag       6.67104483       0.34338507      19.26537704  F        0       0.00000000       0.00000000       0.00000000       0.00000000       0.00000000       0.00000000
Ag      -2.05396891       6.87776709       8.88737202  F        0       0.00000000       0.00000000       0.00000000       0.00000000       0.00000000       0.00000000
Ag       0.10419738       2.53111982      15.79472446  F        0       0.00000000       0.00000000       0.00000000       0.00000000       0.00000000       0.00000000
Ag       1.21116555       5.75979185      15.85106373  F        0       0.00000000       0.00000000       0.00000000       0.00000000       0.00000000       0.00000000
Ag       3.36933184       1.41314435      15.81170082  F        0       0.00000000       0.00000000       0.00000000       0.00000000       0.00000000       0.00000000
Ag       5.59590435       7.96692514      12.34104824  F        0       0.00000000       0.00000000       0.00000000       0.00000000       0.00000000       0.00000000
Ag       7.75407076       3.62027812      12.30168533  F        0       0.00000000       0.00000000       0.00000000       0.00000000       0.00000000       0.00000000
Ag       0.09467599       2.52555656      12.31685829  F        0       0.00000000       0.00000000       0.00000000       0.00000000       0.00000000       0.00000000
Ag      -2.06349015       6.87220383      12.35622120  F        0       0.00000000       0.00000000       0.00000000       0.00000000       0.00000000       0.00000000
Ag       5.60609150       7.97114754       8.86318207  F        0       0.00000000       0.00000000       0.00000000       0.00000000       0.00000000       0.00000000
Ag       7.76425791       3.62450027      15.77053452  F        0       0.00000000       0.00000000       0.00000000       0.00000000       0.00000000       0.00000000
Te       3.43222690       6.93509054      14.03236485  F        0       0.00000000       0.00000000       0.00000000       0.00000000       0.00000000       0.00000000
Te       5.59039307       2.58844328      13.99300289  F        0       0.00000000       0.00000000       0.00000000       0.00000000       0.00000000       0.00000000
Te       0.07588447       7.97772551      10.57868862  F        0       0.00000000       0.00000000       0.00000000       0.00000000       0.00000000       0.00000000
Te       2.23405075       3.63107848      17.48604202  F        0       0.00000000       0.00000000       0.00000000       0.00000000       0.00000000       0.00000000
Te       1.11850584       0.39277598      14.03270531  F        0       0.00000000       0.00000000       0.00000000       0.00000000       0.00000000       0.00000000
Te      -1.03966033       4.73942327      14.07206821  F        0       0.00000000       0.00000000       0.00000000       0.00000000       0.00000000       0.00000000
Te       6.68627548       5.86634731      10.57902908  F        0       0.00000000       0.00000000       0.00000000       0.00000000       0.00000000       0.00000000
Te       8.84444141       1.51970005      17.48638153  F        0       0.00000000       0.00000000       0.00000000       0.00000000       0.00000000       0.00000000
C        4.94235519       2.87941356      28.03657142  T        2      -0.02467300      -0.02651500      -0.07675500      -0.02467300      -0.02651500      -0.07675500
O        5.20426684       3.59899127      28.89152498  T        2      -0.03851400      -0.04931300      -0.07910800      -0.03851400      -0.04931300      -0.07910800
50
Lattice="10.912516593933105 -4.8205472208854785e-18 -0.03936275467276573 -4.3163323402404785 8.693294525146484 -6.867990016937256 -0.0 5.1043636887225e-15 41.680294036865234" Properties=species:S:1:pos:R:3:move_mask:L:1:tags:I:1:DFT_forces:R:3:forces:R:3 DFT_energy=-129.76634068 energy=-129.76634068 pbc="T T T"
Ag       2.67129850       8.34990978      16.39827538  F        0       0.00000000       0.00000000       0.00000000       0.00000000       0.00000000       0.00000000
Ag       3.84975948       4.20935559      22.53971498  T        1       0.00794600      -0.00126700      -0.00182300       0.00794600      -0.00126700      -0.00182300
Ag       1.56690717       5.09246254      19.85195160  F        0       0.00000000       0.00000000       0.00000000       0.00000000       0.00000000       0.00000000
Ag       3.82100314       1.81804544      25.51623382  T        1       0.00367700       0.01043600       0.00079600       0.00367700       0.01043600       0.00079600
Ag       4.51287889       4.69003248      19.30474091  F        0       0.00000000       0.00000000       0.00000000       0.00000000       0.00000000       0.00000000
Ag       2.09064661       8.11612533      19.37860200  T        1      -0.00540700       0.00149500      -0.00475700      -0.00540700       0.00149500      -0.00475700
Ag      -2.05396891       6.87776709      15.83408737  F        0       0.00000000       0.00000000       0.00000000       0.00000000       0.00000000       0.00000000
Ag       0.10419738       2.53111982      22.74143982  F        0       0.00000000       0.00000000       0.00000000       0.00000000       0.00000000       0.00000000
Ag       1.31374705       5.54085444      22.62930890  T        1      -0.00333300      -0.00689000       0.00039000      -0.00333300      -0.00689000       0.00039000
Ag       3.36933184       1.41314435      22.75841713  F        0       0.00000000       0.00000000       0.00000000       0.00000000       0.00000000       0.00000000
Ag       4.91124114       7.62508607      18.86777129  T        1      -0.00658600      -0.00124800       0.01178600      -0.00658600      -0.00124800       0.01178600
Ag       7.75407076       3.62027812      19.24840164  F        0       0.00000000       0.00000000       0.00000000       0.00000000       0.00000000       0.00000000
Ag       0.09467599       2.52555656      19.26357460  F        0       0.00000000       0.00000000       0.00000000       0.00000000       0.00000000       0.00000000
Ag      -1.56654145       6.02061296      18.73209916  T        1       0.00098400       0.00485000       0.00024900       0.00098400       0.00485000       0.00024900
Ag       5.60609150       7.97114754      15.80989742  F        0       0.00000000       0.00000000       0.00000000       0.00000000       0.00000000       0.00000000