81
Lattice="13.424284934997559 -7.254079628140882e-16 -5.923405647277832 -2.791628360748291 8.195000648498535 2.7600550651550293 -0.0 4.451226747490076e-15 36.347023010253906" Properties=species:S:1:pos:R:3:move_mask:L:1:tags:I:1:DFT_forces:R:3:forces:R:3:magmoms:R:1 DFT_energy=-484.03029752 energy=-484.03029752 dipole="_JSON [[0.0, 0.0, 0.0]]" magmom=0.0 free_energy=-484.02431412 pbc="T T T"
Ti      -2.73716831       8.16398430      16.80375671  F        0       0.00000000       0.00000000       0.00000000       0.07528600      -0.15565200       0.81696200       0.00000000
Ti      -1.34135413       4.06648397      19.96710777  F        0       0.00000000       0.00000000       0.00000000      -0.18529500       0.07026400      -0.31101500       0.00000000
Ti      -0.03976652       6.90381590      22.78006072  T        1       0.01270500       0.00604900       0.01801300       0.01270500       0.00604900       0.01801300       0.00000000
Ti       1.29974794       2.88133454      16.86591339  F        0       0.00000000       0.00000000       0.00000000      -0.20322200       0.03204700      -0.27111800       0.00000000
Ti       4.12550020       1.15413249      14.18319416  F        0       0.00000000       0.00000000       0.00000000      -0.42845500       0.21514100      -0.29778900       0.00000000
Ti       2.70212799       5.35465582      20.19488157  T        1       0.00287200      -0.01758400      -0.00898900       0.00287200      -0.01758400      -0.00898900       0.00000000
Ti       0.12111675       0.03101662      20.03724289  F        0       0.00000000       0.00000000       0.00000000      -0.04778200      -0.07486800       0.03928900       0.00000000
Ti      -1.27469742       4.12851715      16.87389183  F        0       0.00000000       0.00000000       0.00000000      -0.11175300       0.02495200      -0.31215000       0.00000000
Ti       3.94238260       1.34278729      19.94274026  T        1       0.00654900      -0.00041200      -0.00096300       0.00654900      -0.00041200      -0.00096300       0.00000000
Ti       2.59739661       5.43068981      16.85205841  F        0       0.00000000       0.00000000       0.00000000      -0.36091400       0.25659600      -0.26450700       0.00000000
Ti      -0.08353803       6.89363670      19.92996979  F        0       0.00000000       0.00000000       0.00000000       0.01530800       0.02092800      -0.04624100       0.00000000
Ti       1.31227612       2.79613638      14.00656319  F        0       0.00000000       0.00000000       0.00000000       0.25520800       0.12868600       0.44609000       0.00000000
Ti       3.90831733       8.10195065      16.93527031  F        0       0.00000000       0.00000000       0.00000000      -0.30983200       0.05390900      -0.48482100       0.00000000
Ti       5.37366613       4.09228513      20.03491750  T        1       0.00693100       0.02014600      -0.02973300       0.00693100       0.02014600      -0.02973300       0.00000000
Ti       0.03622331       6.79977798      16.95710564  F        0       0.00000000       0.00000000       0.00000000      -0.04226700      -0.00770900      -0.09353400       0.00000000
Ti       1.39951577       2.72949748      20.14698011  T        1       0.02034300      -0.02606200      -0.01703600       0.02034300      -0.02606200      -0.01703600       0.00000000
Ti       4.11297226       1.23933077      17.04254341  F        0       0.00000000       0.00000000       0.00000000      -0.14931800       0.11424400      -0.36053200       0.00000000
Ti       2.71715808       5.33683109      13.87919331  F        0       0.00000000       0.00000000       0.00000000      -0.04101600      -0.25221700       0.25560800       0.00000000
Ni      12.64236358       2.13840601      15.48532370  T        1       0.00233200      -0.00446900       0.02109200       0.00233200      -0.00446900       0.02109200       0.00000000
Ni      -2.03926134       6.11523390      18.38543320  F        0       0.00000000       0.00000000       0.00000000      -0.01153300       0.06687900      -0.35209500       0.00000000
Ni       1.93875861       1.00547826      18.31411171  F        0       0.00000000       0.00000000       0.00000000       0.08988100       0.21614500       0.15028500       0.00000000
Ni       0.54294449       5.10297871      15.15076065  F        0       0.00000000       0.00000000       0.00000000       0.46463500      -0.42024800       0.33373500       0.00000000
Ni       2.09067535       7.12748909      18.65840149  F        0       0.00000000       0.00000000       0.00000000       0.04499900      -0.06860600      -0.19231800       0.00000000
Ni       3.48648953       3.02998877      12.73499680  F        0       0.00000000       0.00000000       0.00000000       0.12377700       0.29932400       0.22148700       0.00000000
Ni      -0.53066808       2.20272350      18.47642899  F        0       0.00000000       0.00000000       0.00000000      -0.04988400       0.06429300      -0.00357900       0.00000000
Ni      -1.96210395       6.29105571      24.20917996  T        1      -0.00509700       0.01709700      -0.00224900      -0.00509700       0.01709700      -0.00224900       0.00000000
Ni       3.32167673       3.38144851      18.30340576  F        0       0.00000000       0.00000000       0.00000000       0.04531500       0.11746300       0.68940700       0.00000000
Ni       1.92586267       7.47894907      15.14005566  F        0       0.00000000       0.00000000       0.00000000       0.50223200      -0.23025600       0.44095500       0.00000000
Ni       1.88328540       0.78462249      15.57441044  F        0       0.00000000       0.00000000       0.00000000      -0.19895900      -0.05693100      -0.35679900       0.00000000
Ni       0.45681350       4.88173416      21.36660069  T        1       0.00297300      -0.00192000       0.00060900       0.00297300      -0.00192000       0.00060900       0.00000000
Ni       4.56010199       5.93024397      18.49608421  F        0       0.00000000       0.00000000       0.00000000      -0.10729300      -0.22629700       0.06355900       0.00000000
Ni       5.95591640       1.83274364      12.57267857  F        0       0.00000000       0.00000000       0.00000000       0.45152900      -0.11903400       0.10517100       0.00000000
Ni       0.70775729       4.75151920      18.66910744  F        0       0.00000000       0.00000000       0.00000000       0.07039500       0.01704000      -0.11533300       0.00000000
Ni       1.97224837       0.63929970      21.42689599  T        1      -0.00247700      -0.01046900       0.02059000      -0.00247700      -0.01046900       0.02059000       0.00000000
Ni       1.98165563       7.54926326      21.33249904  T        1       0.00097800       0.00880300      -0.01601500       0.00097800       0.00880300      -0.01601500       0.00000000
Ni       3.54196286       3.25084472      15.47469616  F        0       0.00000000       0.00000000       0.00000000      -0.02439800       0.00509800      -0.12075100       0.00000000
Ti       3.97497416       8.16398430      13.84205437  F        0       0.00000000       0.00000000       0.00000000       0.07871100      -0.15288800       0.81655100       0.00000000
Ti       5.37078810       4.06648397      17.00540543  F        0       0.00000000       0.00000000       0.00000000      -0.17588700       0.10968200      -0.34142900       0.00000000
Ti       6.67066847       6.84735421      19.82358656  T        1       0.01751200      -0.01671100      -0.00439500       0.01751200      -0.01671100      -0.00439500       0.00000000
Ti       8.01189041       2.88133454      13.90421104  F        0       0.00000000       0.00000000       0.00000000      -0.20256900       0.03988800      -0.26918400       0.00000000
Ti      10.83764267       1.15413249      11.22149181  F        0       0.00000000       0.00000000       0.00000000      -0.42216400       0.19335400      -0.24935500       0.00000000
Ti       9.41618558       5.34274223      17.23984133  T        1       0.00986100      -0.00287900      -0.01214700       0.00986100      -0.00287900      -0.01214700       0.00000000
Ti       6.83325911       0.03101662      17.07554054  F        0       0.00000000       0.00000000       0.00000000       0.05814800      -0.09587500       0.08896500       0.00000000
Ti       5.43744516       4.12851715      13.91218948  F        0       0.00000000       0.00000000       0.00000000      -0.10860700       0.02441800      -0.31960900       0.00000000
Ti      10.66720187       1.28033579      16.91819507  T        1       0.00533700      -0.00539000       0.00701100       0.00533700      -0.00539000       0.00701100       0.00000000
Ti       9.30953884       5.43068981      13.89035511  F        0       0.00000000       0.00000000       0.00000000      -0.35660100       0.25280900      -0.26511400       0.00000000
Ti       6.62860441       6.89363670      16.96826553  F        0       0.00000000       0.00000000       0.00000000       0.03385500      -0.07444200       0.01087100       0.00000000
Ti       8.02441883       2.79613638      11.04486084  F        0       0.00000000       0.00000000       0.00000000       0.25668000       0.12395000       0.45841000       0.00000000
Ti      10.62045956       8.10195065      13.97356796  F        0       0.00000000       0.00000000       0.00000000      -0.30879400       0.06339600      -0.48543600       0.00000000
Ti      -1.28898207       4.15722536      22.95465923  T        1      -0.01433100      -0.00479600      -0.02345400      -0.01433100      -0.00479600      -0.02345400       0.00000000
Ti       6.74836588       6.79977798      13.99540234  F        0       0.00000000       0.00000000       0.00000000      -0.04854300      -0.01483800      -0.08066700       0.00000000
Ti       8.13774841       2.71882816      17.18808713  T        1       0.00659700      -0.01222500      -0.02737900       0.00659700      -0.01222500      -0.02737900       0.00000000
Ti      10.82511425       1.23933077      14.08084106  F        0       0.00000000       0.00000000       0.00000000      -0.08981500       0.10990500      -0.39688300       0.00000000
Ti       9.42930031       5.33683109      10.91749096  F        0       0.00000000       0.00000000       0.00000000      -0.03910500      -0.25971200       0.25583700       0.00000000
Ni       5.95819400       2.12767918      18.35653751  T        1      -0.02140700       0.00140000       0.01454500      -0.02140700       0.00140000       0.01454500       0.00000000
Ni       4.67288113       6.11523390      15.42372990  F        0       0.00000000       0.00000000       0.00000000      -0.00923600       0.06759400      -0.36705700       0.00000000
Ni       8.65090084       1.00547826      15.35240841  F        0       0.00000000       0.00000000       0.00000000       0.06917000       0.23409400       0.13012900       0.00000000
Ni       7.25508690       5.10297871      12.18905830  F        0       0.00000000       0.00000000       0.00000000       0.46769100      -0.41739300       0.34497100       0.00000000
Ni       8.80281830       7.12748909      15.69669914  F        0       0.00000000       0.00000000       0.00000000       0.03307600      -0.10854000      -0.19482700       0.00000000
Ni      10.19863224       3.02998877       9.77329350  F        0       0.00000000       0.00000000       0.00000000       0.11942000       0.30079700       0.21854300       0.00000000
Ni       6.18147421       2.20272350      15.51472664  F        0       0.00000000       0.00000000       0.00000000      -0.03328500       0.04634800      -0.03547400       0.00000000
Ni       4.74164612       6.27558050      21.23383921  T        1      -0.00749900       0.02159900       0.00885000      -0.00749900       0.02159900       0.00885000       0.00000000
Ni      10.03381920       3.38144851      15.34170341  F        0       0.00000000       0.00000000       0.00000000       0.06277500       0.10624000       0.69949300       0.00000000
Ni       8.63800526       7.47894907      12.17835331  F        0       0.00000000       0.00000000       0.00000000       0.50109500      -0.23299500       0.43988800       0.00000000
Ni       8.59542751       0.78462249      12.61270809  F        0       0.00000000       0.00000000       0.00000000      -0.21974300      -0.06483600      -0.35774000       0.00000000
Ni       7.14374909       4.83882694      18.42288888  T        1       0.00797300       0.01170400      -0.00569800       0.00797300       0.01170400      -0.00569800       0.00000000
Ni      11.27224445       5.93024397      15.53438091  F        0       0.00000000       0.00000000       0.00000000      -0.16231400      -0.24312500       0.00269500       0.00000000
Ni      12.66805840       1.83274364       9.61097622  F        0       0.00000000       0.00000000       0.00000000       0.44787700      -0.12122200       0.09944900       0.00000000
Ni       7.41989994       4.75151920      15.70740414  F        0       0.00000000       0.00000000       0.00000000       0.09385400      -0.00715100      -0.07270900       0.00000000
Ni       8.75420469       0.60237154      18.44869759  T        1      -0.00896200      -0.01013300      -0.01218600      -0.00896200      -0.01013300      -0.01218600       0.00000000
Ni       8.70088849       7.49736007      18.34350522  T        1      -0.02091000       0.01157300       0.00875500      -0.02091000       0.01157300       0.00875500       0.00000000
Ni      10.25410557       3.25084472      12.51299381  F        0       0.00000000       0.00000000       0.00000000      -0.03045300       0.01611800      -0.11086400       0.00000000
C        6.24642717       1.62080645      22.33032020  T        2       0.01146800      -0.01042600       0.02607200       0.01146800      -0.01042600       0.02607200       0.00000000
C        5.68163399       0.70235139      23.40100916  T        2       0.00734500       0.00363500       0.00508100       0.00734500       0.00363500       0.00508100       0.00000000
H        6.71052157       1.06662511      21.49712526  T        2       0.00449100       0.01719600       0.03184800       0.00449100       0.01719600       0.03184800       0.00000000
H        6.97673394       2.34170000      22.73608330  T        2      -0.01093200       0.01078100      -0.00312300      -0.01093200       0.01078100      -0.00312300       0.00000000
H        4.50612489       2.73746617      22.31406577  T        2       0.02090300      -0.01495200      -0.01693500       0.02090300      -0.01495200      -0.01693500       0.00000000
H        4.86984675       0.07190317      22.99842864  T        2       0.03404500      -0.00136300      -0.00112100       0.03404500      -0.00136300      -0.00112100       0.00000000
H        5.29692112       1.26917312      24.26687309  T        2      -0.00958000      -0.00547900      -0.00814000      -0.00958000      -0.00547900      -0.00814000       0.00000000
H        6.48243658       0.03426453      23.76348716  T        2       0.01009500       0.03411800       0.00801300       0.01009500       0.03411800       0.00801300       0.00000000
O        5.16503439       2.40748187      21.66203481  T        2       0.02800300      -0.00559200       0.01966600       0.02800300      -0.00559200       0.01966600       0.00000000
81
Lattice="13.424284934997559 -7.254079628140882e-16 -5.923405647277832 -2.791628360748291 8.195000648498535 2.7600550651550293 -0.0 4.451226747490076e-15 36.347023010253906" Properties=species:S:1:pos:R:3:move_mask:L:1:tags:I:1:DFT_forces:R:3:forces:R:3 DFT_energy=-483.99628391 energy=-483.99628391 pbc="T T T"
Ti      -2.73716831       8.16398430      16.80375671  F        0       0.00000000       0.00000000       0.00000000       0.00000000       0.00000000       0.00000000
Ti      -1.34135413       4.06648397      19.96710777  F        0       0.00000000       0.00000000       0.00000000       0.00000000       0.00000000       0.00000000
Ti      -0.02505368       6.91690559      22.77134239  T        1      -0.00454700      -0.00003700      -0.00113800      -0.00454700      -0.00003700      -0.00113800
Ti       1.29974794       2.88133454      16.86591339  F        0       0.00000000       0.00000000       0.00000000       0.00000000       0.00000000       0.00000000
Ti       4.12550020       1.15413249      14.18319416  F        0       0.00000000       0.00000000       0.00000000       0.00000000       0.00000000       0.00000000
Ti       2.70476815       5.35391907      20.20037235  T        1       0.00252800      -0.01329400      -0.00178400       0.00252800      -0.01329400      -0.00178400
Ti       0.12111675       0.03101662      20.03724289  F        0       0.00000000       0.00000000       0.00000000       0.00000000       0.00000000       0.00000000
Ti      -1.27469742       4.12851715      16.87389183  F        0       0.00000000       0.00000000       0.00000000       0.00000000       0.00000000       0.00000000
Ti       4.02305276       1.32784863      19.99441677  T        1      -0.01027600       0.00008200      -0.00322400      -0.01027600       0.00008200      -0.00322400
Ti       2.59739661       5.43068981      16.85205841  F        0       0.00000000       0.00000000       0.00000000       0.00000000       0.00000000       0.00000000
Ti      -0.08353803       6.89363670      19.92996979  F        0       0.00000000       0.00000000       0.00000000       0.00000000       0.00000000       0.00000000
Ti       1.31227612       2.79613638      14.00656319  F        0       0.00000000       0.00000000       0.00000000       0.00000000       0.00000000       0.00000000
Ti       3.90831733       8.10195065      16.93527031  F        0       0.00000000       0.00000000       0.00000000       0.00000000       0.00000000       0.00000000
Ti       5.37760867       4.08590684      20.04349837  T        1       0.00704500       0.00122100       0.00276200       0.00704500       0.00122100       0.00276200
Ti       0.03622331       6.79977798      16.95710564  F        0       0.00000000       0.00000000       0.00000000       0.00000000       0.00000000       0.00000000
Ti       1.42982934       2.71357097      20.14314182  T        1       0.00886400       0.01019000      -0.00281600       0.00886400       0.01019000      -0.00281600
Ti       4.11297226       1.23933077      17.04254341  F        0       0.00000000       0.00000000       0.00000000       0.00000000       0.00000000       0.00000000
Ti       2.71715808       5.33683109      13.87919331  F        0       0.00000000       0.00000000       0.00000000       0.00000000       0.00000000       0.00000000
Ni      12.64861553       2.13904261      15.48488857  T        1       0.00523300       0.00222800      -0.00822800       0.00523300       0.00222800      -0.00822800
Ni      -2.03926134       6.11523390      18.38543320  F        0       0.00000000       0.00000000       0.00000000       0.00000000       0.00000000       0.00000000
Ni       1.93875861       1.00547826      18.31411171  F        0       0.00000000       0.00000000       0.00000000       0.00000000       0.00000000       0.00000000
Ni       0.54294449       5.10297871      15.15076065  F        0       0.00000000       0.00000000       0.00000000       0.00000000       0.00000000       0.00000000
Ni       2.09067535       7.12748909      18.65840149  F        0       0.00000000       0.00000000       0.00000000       0.00000000       0.00000000       0.00000000
Ni       3.48648953       3.02998877      12.73499680  F        0       0.00000000       0.00000000       0.00000000       0.00000000       0.00000000       0.00000000
Ni      -0.53066808       2.20272350      18.47642899  F        0       0.00000000       0.00000000       0.00000000       0.00000000       0.00000000       0.00000000
Ni      -1.95797817       6.30033460      24.19687506  T        1       0.00829100      -0.00012800       0.00836800       0.00829100      -0.00012800       0.00836800
Ni       3.32167673       3.38144851      18.30340576  F        0       0.00000000       0.00000000       0.00000000       0.00000000       0.00000000       0.00000000
Ni       1.92586267       7.47894907      15.14005566  F        0       0.00000000       0.00000000       0.00000000       0.00000000       0.00000000       0.00000000
Ni       1.88328540       0.78462249      15.57441044  F        0       0.00000000       0.00000000       0.00000000       0.00000000       0.00000000       0.00000000
Ni       0.45793485       4.87440249      21.36332683  T        1       0.00046500       0.00940800      -0.00739600       0.00046500       0.00940800      -0.00739600
Ni       4.56010199       5.93024397      18.49608421  F        0       0.00000000       0.00000000       0.00000000       0.00000000       0.00000000       0.00000000
Ni       5.95591640       1.83274364      12.57267857  F        0       0.00000000       0.00000000       0.00000000       0.00000000       0.00000000       0.00000000
Ni       0.70775729       4.75151920      18.66910744  F        0       0.00000000       0.00000000       0.00000000       0.00000000       0.00000000       0.00000000
Ni       2.00017182       0.62689259      21.42533981  T        1      -0.00815900       0.00483400      -0.00122500      -0.00815900       0.00483400      -0.00122500
Ni       1.99434849       7.55998182      21.32955684  T        1      -0.00445100      -0.01048600       0.00483500      -0.00445100      -0.01048600       0.00483500
Ni       3.54196286       3.25084472      15.47469616  F        0       0.00000000       0.00000000       0.00000000       0.00000000       0.00000000       0.00000000
Ti       3.97497416       8.16398430      13.84205437  F        0       0.00000000       0.00000000       0.00000000       0.00000000       0.00000000       0.00000000
Ti       5.37078810       4.06648397      17.00540543  F        0       0.00000000       0.00000000       0.00000000       0.00000000       0.00000000       0.00000000
Ti       6.66841699       6.83513433      19.82607518  T        1      -0.00090400       0.00089800       0.00993500      -0.00090400       0.00089800       0.00993500
Ti       8.01189041       2.88133454      13.90421104  F        0       0.00000000       0.00000000       0.00000000       0.00000000       0.00000000       0.00000000
Ti      10.83764267       1.15413249      11.22149181  F        0       0.00000000       0.00000000       0.00000000       0.00000000       0.00000000       0.00000000
Ti       9.41544941       5.34074468      17.23795665  T        1       0.00349200       0.00383900       0.00373100       0.00349200       0.00383900       0.00373100
Ti       6.83325911       0.03101662      17.07554054  F        0       0.00000000       0.00000000       0.00000000       0.00000000       0.00000000       0.00000000
Ti       5.43744516       4.12851715      13.91218948  F        0       0.00000000       0.00000000       0.00000000       0.00000000       0.00000000       0.00000000
Ti      10.66680210       1.27354908      16.91698824  T        1      -0.00847500       0.00004300      -0.00084300      -0.00847500       0.00004300      -0.00084300
Ti       9.30953884       5.43068981      13.89035511  F        0       0.00000000       0.00000000       0.00000000       0.00000000       0.00000000       0.00000000
Ti       6.62860441       6.89363670      16.96826553  F        0       0.00000000       0.00000000       0.00000000       0.00000000       0.00000000       0.00000000
Ti       8.02441883       2.79613638      11.04486084  F        0       0.00000000       0.00000000       0.00000000       0.00000000       0.00000000       0.00000000
Ti      10.62045956       8.10195065      13.97356796  F        0       0.00000000       0.00000000       0.00000000       0.00000000       0.00000000       0.00000000
Ti      -1.29042303       4.15847352      22.94790409  T        1       0.00295600       0.00235500      -0.00200600       0.00295600       0.00235500      -0.00200600
Ti       6.74836588       6.79977798      13.99540234  F        0       0.00000000       0.00000000       0.00000000       0.00000000       0.00000000       0.00000000
Ti       8.13469431       2.71378711      17.18856004  T        1      -0.00007600       0.00228400      -0.00770200      -0.00007600       0.00228400      -0.00770200
Ti      10.82511425       1.23933077      14.08084106  F        0       0.00000000       0.00000000       0.00000000       0.00000000       0.00000000       0.00000000
Ti       9.42930031       5.33683109      10.91749096  F        0       0.00000000       0.00000000       0.00000000       0.00000000       0.00000000       0.00000000
Ni       5.94837914       2.13182507      18.38153452  T        1      -0.00226100      -0.00403900      -0.01496300      -0.00226100      -0.00403900      -0.01496300
Ni       4.67288113       6.11523390      15.42372990  F        0       0.00000000       0.00000000       0.00000000       0.00000000       0.00000000       0.00000000
Ni       8.65090084       1.00547826      15.35240841  F        0       0.00000000       0.00000000       0.00000000       0.00000000       0.00000000       0.00000000
Ni       7.25508690       5.10297871      12.18905830  F        0       0.00000000       0.00000000       0.00000000       0.00000000       0.00000000       0.00000000
Ni       8.80281830       7.12748909      15.69669914  F        0       0.00000000       0.00000000       0.00000000       0.00000000       0.00000000       0.00000000
Ni      10.19863224       3.02998877       9.77329350  F        0       0.00000000       0.00000000       0.00000000       0.00000000       0.00000000       0.00000000
Ni       6.18147421       2.20272350      15.51472664  F        0       0.00000000       0.00000000       0.00000000       0.00000000       0.00000000       0.00000000
Ni       4.73392139       6.28721449      21.24423616  T        1       0.00208600      -0.01320600       0.00205500       0.00208600      -0.01320600       0.00205500
Ni      10.03381920       3.38144851      15.34170341  F        0       0.00000000       0.00000000       0.00000000       0.00000000       0.00000000       0.00000000
Ni       8.63800526       7.47894907      12.17835331  F        0       0.00000000       0.00000000       0.00000000       0.00000000       0.00000000       0.00000000
Ni       8.59542751       0.78462249      12.61270809  F        0       0.00000000       0.00000000       0.00000000       0.00000000       0.00000000       0.00000000
Ni       7.14679848       4.83661230      18.42112594  T        1      -0.00228800      -0.00394000       0.00021900      -0.00228800      -0.00394000       0.00021900
Ni      11.27224445       5.93024397      15.53438091  F        0       0.00000000       0.00000000       0.00000000       0.00000000       0.00000000       0.00000000
Ni      12.66805840       1.83274364       9.61097622  F        0       0.00000000       0.00000000       0.00000000       0.00000000       0.00000000       0.00000000
Ni       7.41989994       4.75151920      15.70740414  F        0       0.00000000       0.00000000       0.00000000       0.00000000       0.00000000       0.00000000
Ni       8.75172203       0.59598803      18.44805707  T        1      -0.00255900       0.00356900       0.00179400      -0.00255900       0.00356900       0.00179400
Ni       8.69506940       7.49626533      18.34399314  T        1      -0.00830400      -0.00042100      -0.00271400      -0.00830400      -0.00042100      -0.00271400
Ni      10.25410557       3.25084472      12.51299381  F        0       0.00000000       0.00000000       0.00000000       0.00000000       0.00000000       0.00000000
C        6.37290629       1.69690622      22.63439218  T        2      -0.01762500       0.01414500      -0.01561400      -0.01762500       0.01414500      -0.01561400
C        5.91455803       0.86038056      23.82078356  T        2      -0.02691100       0.02398400      -0.03341500      -0.02691100       0.02398400      -0.03341500
H        6.95550216       1.09990630      21.91507376  T        2      -0.01523400       0.06575100      -0.04070300      -0.01523400       0.06575100      -0.04070300
H        6.97916389       2.55732917      22.96865416  T        2      -0.00425600       0.01118900      -0.05996600      -0.00425600       0.01118900      -0.05996600
H        4.53757322       2.57886096      22.43358052  T        2      -0.00673900       0.02523600      -0.04135900      -0.00673900       0.02523600      -0.04135900
H        5.35401668      -0.03391545      23.50772859  T        2      -0.03287700      -0.00049100      -0.04208300      -0.03287700      -0.00049100      -0.04208300
H        5.29378321       1.44240653      24.52352038  T        2      -0.02911700       0.03351200      -0.01716700      -0.02911700       0.03351200      -0.01716700
H        4.01501696       8.72293752      27.14161040  T        2       0.00300000      -0.00364100      -0.04177400       0.00300000      -0.00364100      -0.04177400
O        5.23920788       2.24475993      21.83165084  T        2       0.01159600       0.02525800      -0.00664400       0.01159600       0.02525800      -0.00664400
81
Lattice="13.424284934997559 -7.254079628140882e-16 -5.923405647277832 -2.791628360748291 8.195000648498535 2.7600550651550293 -0.0 4.451226747490076e-15 36.347023010253906" Properties=species:S:1:pos:R:3:move_mask:L:1:tags:I:1:DFT_forces:R:3:forces:R:3 DFT_energy=-483.82492237 energy=-483.82492237 pbc="T T T"
Ti      -2.73716831       8.16398430      16.80375671  F        0       0.00000000       0.00000000       0.00000000       0.00000000       0.00000000       0.00000000
Ti      -1.34135413       4.06648397      19.96710777  F        0       0.00000000       0.00000000       0.00000000       0.00000000       0.00000000       0.00000000