67
Lattice="13.992857933044434 -1.0492963336033189e-31 -8.568154366412587e-16 -6.996428966522217 6.996428966522217 -4.851954936981201 -0.0 4.753545088342871e-15 38.81563949584961" Properties=species:S:1:pos:R:3:move_mask:L:1:tags:I:1:DFT_forces:R:3:forces:R:3:magmoms:R:1 DFT_energy=-660.7167957 energy=-660.7167957 dipole="_JSON [[0.0, 0.0, 0.0]]" magmom=0.0 free_energy=-660.7120682 pbc="T T T"
P        8.97365856       2.10560656      19.49266434  F        0       0.00000000       0.00000000       0.00000000      -0.07169300       0.54503300      -0.43215900       0.00000000
P       -1.96734525       4.95071232      19.62438054  T        1       0.00191600       0.00126900      -0.00260100       0.00191600       0.00126900      -0.00260100       0.00000000
P       11.82454268       1.92789763      22.26092869  T        1       0.00861400      -0.00213500       0.00808400       0.00861400      -0.00213500       0.00808400       0.00000000
P       -4.89082241       5.01919985      17.07139778  F        0       0.00000000       0.00000000       0.00000000      -0.02654000      -0.69610500      -0.13227300       0.00000000
P        1.78462592       2.55986819      21.90314408  T        1      -0.00206300       0.00162200       0.00351700      -0.00206300       0.00162200       0.00351700       0.00000000
P        5.01919985       4.89082241      17.06668663  F        0       0.00000000       0.00000000       0.00000000      -0.43056700      -0.67068800      -0.45204500       0.00000000
P        4.89082241       1.97722936      19.49737549  F        0       0.00000000       0.00000000       0.00000000      -0.17201100       0.56087600       0.13195200       0.00000000
P        2.11015686       5.07585182      19.64897361  T        1       0.00069600      -0.00092600      -0.01759500       0.00069600      -0.00092600      -0.01759500       0.00000000
W       -0.08806099       1.26812067      20.72886065  T        1      -0.00336400       0.00453200       0.00404600      -0.00336400       0.00453200       0.00404600       0.00000000
W        7.03148317       5.68442297      15.76885414  F        0       0.00000000       0.00000000       0.00000000       0.13343700      -0.32513300      -0.63518200       0.00000000
W       -1.31200588       6.96137524      15.94325352  F        0       0.00000000       0.00000000       0.00000000       0.22701900      -0.17214100      -0.47315700       0.00000000
W        8.30843449       0.03505400      20.79520798  F        0       0.00000000       0.00000000       0.00000000      -0.04675700      -0.20519900      -0.31804700       0.00000000
W        9.40204933       2.22245983      21.86167438  T        1      -0.01316100      -0.01112400       0.00244400      -0.01316100      -0.01112400       0.00244400       0.00000000
W       -2.45463896       4.48438120      17.06411171  F        0       0.00000000       0.00000000       0.00000000       0.36081300      -0.15025400       0.15124800       0.00000000
W       11.47148905       2.40262940      19.52793067  T        1      -0.00635100       0.00465200      -0.00397700      -0.00635100       0.00465200      -0.00397700       0.00000000
W       -4.45053230       4.50451273      19.38559574  T        1       0.00855200       0.00002700       0.00173100       0.00855200       0.00002700       0.00173100       0.00000000
W       -0.07795652       2.79218221      18.18868637  F        0       0.00000000       0.00000000       0.00000000       0.06736100      -0.43821400       0.21151000       0.00000000
W        7.07438564       4.20424652      18.18868637  F        0       0.00000000       0.00000000       0.00000000       0.56073100       0.31003000       1.05054200       0.00000000
W       -2.65320930       6.94839477      18.28124512  T        1      -0.00433500      -0.00958900       0.01231300      -0.00433500      -0.00958900       0.01231300       0.00000000
W        9.96383999       0.00648119      23.13963399  T        1       0.02711100       0.00787400      -0.00008100       0.02711100       0.00787400      -0.00008100       0.00000000
W        7.01058341       1.46754573      22.84975319  T        1       0.00790100      -0.01665100      -0.02898700       0.00790100      -0.01665100      -0.02898700       0.00000000
W        0.06037582       5.73700489      18.21340988  T        1      -0.00051100       0.00942600      -0.00522400      -0.00051100       0.00942600      -0.00522400       0.00000000
W        5.85058934       6.80553519      18.20932947  T        1       0.00774500      -0.00800300      -0.00113700       0.00774500      -0.00800300      -0.00113700       0.00000000
W        1.49173608       0.09332848      22.97661560  T        1       0.00860800       0.00593600       0.00063900       0.00860800       0.00593600       0.00063900       0.00000000
W        2.46452578       2.46424427      19.43487915  T        1      -0.00017700       0.00465600       0.00851400      -0.00017700       0.00465600       0.00851400       0.00000000
W        4.54292809       4.47053860      19.37771596  T        1       0.00888300      -0.00333600      -0.00097800       0.00888300      -0.00333600      -0.00097800       0.00000000
W        4.29899795       2.16334735      21.90829238  T        1      -0.00138600      -0.02199000       0.01290500      -0.00138600      -0.02199000       0.01290500       0.00000000
W        2.51204801       4.54179001      17.07397270  F        0       0.00000000       0.00000000       0.00000000      -0.24686000       0.15505100       0.31481500       0.00000000
W        6.88640054       2.77123710      20.65257423  T        1       0.00117900      -0.00886100       0.01132100       0.00117900      -0.00886100       0.01132100       0.00000000
W        0.10907165       3.88784495      20.45915570  T        1       0.01665800      -0.00278200       0.00912200       0.01665800      -0.00278200       0.00912200       0.00000000
W        4.20424652       6.91847229      15.94939804  F        0       0.00000000       0.00000000       0.00000000       0.13815600       0.42122500       0.02172300       0.00000000
W        2.79218221       0.07795652      20.80135345  F        0       0.00000000       0.00000000       0.00000000      -0.52841300       0.46841300      -0.54335400       0.00000000
P        8.97365856       2.10560656      14.64070892  F        0       0.00000000       0.00000000       0.00000000       0.44578500      -0.89068400      -0.63674700       0.00000000
P       -1.97722936       4.89082241      14.64070892  F        0       0.00000000       0.00000000       0.00000000      -0.41270400      -0.59391000      -0.36032400       0.00000000
P       11.88725185       1.97722936      17.07139778  F        0       0.00000000       0.00000000       0.00000000      -0.18227800      -0.20497600      -0.04717400       0.00000000
P       -4.89082241       5.01919985      12.21944332  F        0       0.00000000       0.00000000       0.00000000       0.52492900      -0.58334100      -0.84997500       0.00000000
P        1.97722936       2.10560656      17.06668663  F        0       0.00000000       0.00000000       0.00000000       0.20249900      -0.48496500      -0.57440300       0.00000000
P        5.01919985       4.89082241      12.21473122  F        0       0.00000000       0.00000000       0.00000000      -0.85361100      -0.25012900      -1.00903600       0.00000000
P        4.89082241       1.97722936      14.64542103  F        0       0.00000000       0.00000000       0.00000000      -0.61662200      -1.23263800      -0.44653800       0.00000000
P        2.10560656       5.01919985      14.64542103  F        0       0.00000000       0.00000000       0.00000000       0.22681700      -0.66155800      -0.68898600       0.00000000
W       -0.03505400       1.31200588      15.76885414  F        0       0.00000000       0.00000000       0.00000000       0.03688200      -1.31672800      -0.58222700       0.00000000
W        7.03148317       5.68442297      10.91689873  F        0       0.00000000       0.00000000       0.00000000      -0.05353800       1.73722800       2.58098200       0.00000000
W       -1.31200588       6.96137524      11.09129810  F        0       0.00000000       0.00000000       0.00000000      -0.06324100      -0.03789100       1.57025200       0.00000000
W        8.30843449       0.03505400      15.94325352  F        0       0.00000000       0.00000000       0.00000000       0.16386400      -0.18729900       1.47583700       0.00000000
W        9.45106792       2.51204801      17.06411171  F        0       0.00000000       0.00000000       0.00000000      -0.03908700      -0.01546100      -0.28006200       0.00000000
W       -2.45463896       4.48438120      12.21215630  F        0       0.00000000       0.00000000       0.00000000       0.84901400       1.60481300       1.57186700       0.00000000
W       11.48081017       2.45463896      14.64799500  F        0       0.00000000       0.00000000       0.00000000       1.31501800       0.50835000       0.33459000       0.00000000
W       -4.48438120       4.54179001      14.64799500  F        0       0.00000000       0.00000000       0.00000000      -0.29755800       0.11641100      -0.23081700       0.00000000
W       -0.07795652       2.79218221      13.33673191  F        0       0.00000000       0.00000000       0.00000000      -0.09792600       1.69289800       1.86453600       0.00000000
W        7.07438564       4.20424652      13.33673191  F        0       0.00000000       0.00000000       0.00000000       0.13015700       1.20331200       1.17564400       0.00000000
W       -2.79218221       6.91847229      13.52342033  F        0       0.00000000       0.00000000       0.00000000       0.08052500      -0.45001100      -0.58834000       0.00000000
W        9.78861141       0.07795652      18.37537575  F        0       0.00000000       0.00000000       0.00000000      -0.06792900      -0.77906600      -0.58109700       0.00000000
W        6.96137524       1.31200588      18.19483185  F        0       0.00000000       0.00000000       0.00000000       0.03584000      -0.07554500       0.12232400       0.00000000
W        0.03505400       5.68442297      13.34287643  F        0       0.00000000       0.00000000       0.00000000       0.31162700      -1.04441700      -1.99324300       0.00000000
W        5.68442297       6.96137524      13.51727581  F        0       0.00000000       0.00000000       0.00000000       0.09195500       0.09179900      -0.42315700       0.00000000
W        1.31200588       0.03505400      18.36923027  F        0       0.00000000       0.00000000       0.00000000      -0.27710800       0.09403800      -0.50221200       0.00000000
W        2.45463896       2.51204801      14.63813400  F        0       0.00000000       0.00000000       0.00000000      -1.37733600       1.08139800       0.41606200       0.00000000
W        4.54179001       4.48438120      14.63813400  F        0       0.00000000       0.00000000       0.00000000       0.28589700      -0.18640800      -0.62954300       0.00000000
W        4.48438120       2.45463896      17.07397270  F        0       0.00000000       0.00000000       0.00000000       0.06733000       0.00923700      -0.09689800       0.00000000
W        2.51204801       4.54179001      12.22201824  F        0       0.00000000       0.00000000       0.00000000      -0.82363100       1.46159500       1.68292900       0.00000000
W        6.91847229       2.79218221      15.76270866  F        0       0.00000000       0.00000000       0.00000000       0.14990100      -0.53167200      -0.31076100       0.00000000
W        0.07795652       4.20424652      15.76270866  F        0       0.00000000       0.00000000       0.00000000      -0.23839700      -0.05318200      -0.86828400       0.00000000
W        4.20424652       6.91847229      11.09744358  F        0       0.00000000       0.00000000       0.00000000       0.35432300       0.08957100       0.22099200       0.00000000
W        2.79218221       0.07795652      15.94939804  F        0       0.00000000       0.00000000       0.00000000       0.09545100       0.11948000      -0.25333900       0.00000000
H        6.01782424       2.11571858      25.31552818  T        2      -0.00443900      -0.00209200      -0.00304700      -0.00443900      -0.00209200      -0.00304700       0.00000000
H        7.56601466       1.91371438      25.53015782  T        2       0.00969100       0.00482500       0.01372800       0.00969100       0.00482500       0.01372800       0.00000000
O        6.90010194       2.34099961      24.95498924  T        2      -0.00329300       0.00952400       0.01684100      -0.00329300       0.00952400       0.01684100       0.00000000
67
Lattice="13.992857933044434 -1.0492963336033189e-31 -8.568154366412587e-16 -6.996428966522217 6.996428966522217 -4.851954936981201 -0.0 4.753545088342871e-15 38.81563949584961" Properties=species:S:1:pos:R:3:move_mask:L:1:tags:I:1:DFT_forces:R:3:forces:R:3 DFT_energy=-660.64273307 energy=-660.64273307 pbc="T T T"
P        8.97365856       2.10560656      19.49266434  F        0       0.00000000       0.00000000       0.00000000       0.00000000       0.00000000       0.00000000
P       -1.96066805       4.94160234      19.62611950  T        1       0.01580700      -0.01171400       0.00752700       0.01580700      -0.01171400       0.00752700
P       11.82820249       1.91946242      22.26666523  T        1       0.01497200       0.00550100      -0.00147800       0.01497200       0.00550100      -0.00147800
P       -4.89082241       5.01919985      17.07139778  F        0       0.00000000       0.00000000       0.00000000       0.00000000       0.00000000       0.00000000
P        1.78866096       2.55654224      21.90585038  T        1      -0.00724800       0.00604300      -0.00845300      -0.00724800       0.00604300      -0.00845300
P        5.01919985       4.89082241      17.06668663  F        0       0.00000000       0.00000000       0.00000000       0.00000000       0.00000000       0.00000000
P        4.89082241       1.97722936      19.49737549  F        0       0.00000000       0.00000000       0.00000000       0.00000000       0.00000000       0.00000000
P        2.11564510       5.07412190      19.64452364  T        1      -0.00784600      -0.00208800      -0.00124100      -0.00784600      -0.00208800      -0.00124100
W       -0.08640945       1.26888119      20.72619198  T        1      -0.01087100      -0.00235300       0.01163100      -0.01087100      -0.00235300       0.01163100
W        7.03148317       5.68442297      15.76885414  F        0       0.00000000       0.00000000       0.00000000       0.00000000       0.00000000       0.00000000
W       -1.31200588       6.96137524      15.94325352  F        0       0.00000000       0.00000000       0.00000000       0.00000000       0.00000000       0.00000000
W        8.30843449       0.03505400      20.79520798  F        0       0.00000000       0.00000000       0.00000000       0.00000000       0.00000000       0.00000000
W        9.40166743       2.21017915      21.87327685  T        1      -0.00655600       0.02371300      -0.01920600      -0.00655600       0.02371300      -0.01920600
W       -2.45463896       4.48438120      17.06411171  F        0       0.00000000       0.00000000       0.00000000       0.00000000       0.00000000       0.00000000
W       11.47222886       2.40180805      19.52899253  T        1      -0.00929100       0.01133700      -0.00920500      -0.00929100       0.01133700      -0.00920500
W       -4.44534151       4.50606742      19.38582278  T        1       0.00690200      -0.00641000      -0.00465800       0.00690200      -0.00641000      -0.00465800
W       -0.07795652       2.79218221      18.18868637  F        0       0.00000000       0.00000000       0.00000000       0.00000000       0.00000000       0.00000000
W        7.07438564       4.20424652      18.18868637  F        0       0.00000000       0.00000000       0.00000000       0.00000000       0.00000000       0.00000000
W       -2.63019288       6.94821842      18.30893355  T        1      -0.00488200      -0.00676800      -0.01157600      -0.00488200      -0.00676800      -0.01157600
W        9.97983915       0.00177318      23.14601764  T        1      -0.01026800       0.01029600      -0.01144400      -0.01026800       0.01029600      -0.01144400
W        7.02001319       1.47951526      22.89613629  T        1      -0.01743800       0.00740400       0.02634800      -0.01743800       0.00740400       0.02634800
W        0.06017142       5.75398941      18.21622529  T        1       0.01176400      -0.03399200       0.00749600       0.01176400      -0.03399200       0.00749600
W        5.87133616       6.80108910      18.20563804  T        1       0.00317300       0.00973400       0.00369900       0.00317300       0.00973400       0.00369900
W        1.52399460       0.10028780      22.98519343  T        1      -0.00632300       0.00012700      -0.00394700      -0.00632300       0.00012700      -0.00394700
W        2.46584905       2.46680970      19.43583926  T        1      -0.00250300      -0.00344100       0.00391800      -0.00250300      -0.00344100       0.00391800
W        4.55164177       4.46762539      19.37800154  T        1       0.00107100       0.00475800       0.00312800       0.00107100       0.00475800       0.00312800
W        4.29726657       2.14678877      21.91877420  T        1      -0.02120700      -0.00479900      -0.00266900      -0.02120700      -0.00479900      -0.00266900
W        2.51204801       4.54179001      17.07397270  F        0       0.00000000       0.00000000       0.00000000       0.00000000       0.00000000       0.00000000
W        6.88500359       2.75083460      20.67606602  T        1      -0.00673500      -0.00228700       0.00611700      -0.00673500      -0.00228700       0.00611700
W        0.11815146       3.88661575      20.46037477  T        1      -0.00242900      -0.00626200       0.00157800      -0.00242900      -0.00626200       0.00157800
W        4.20424652       6.91847229      15.94939804  F        0       0.00000000       0.00000000       0.00000000       0.00000000       0.00000000       0.00000000
W        2.79218221       0.07795652      20.80135345  F        0       0.00000000       0.00000000       0.00000000       0.00000000       0.00000000       0.00000000
P        8.97365856       2.10560656      14.64070892  F        0       0.00000000       0.00000000       0.00000000       0.00000000       0.00000000       0.00000000
P       -1.97722936       4.89082241      14.64070892  F        0       0.00000000       0.00000000       0.00000000       0.00000000       0.00000000       0.00000000
P       11.88725185       1.97722936      17.07139778  F        0       0.00000000       0.00000000       0.00000000       0.00000000       0.00000000       0.00000000
P       -4.89082241       5.01919985      12.21944332  F        0       0.00000000       0.00000000       0.00000000       0.00000000       0.00000000       0.00000000
P        1.97722936       2.10560656      17.06668663  F        0       0.00000000       0.00000000       0.00000000       0.00000000       0.00000000       0.00000000
P        5.01919985       4.89082241      12.21473122  F        0       0.00000000       0.00000000       0.00000000       0.00000000       0.00000000       0.00000000
P        4.89082241       1.97722936      14.64542103  F        0       0.00000000       0.00000000       0.00000000       0.00000000       0.00000000       0.00000000
P        2.10560656       5.01919985      14.64542103  F        0       0.00000000       0.00000000       0.00000000       0.00000000       0.00000000       0.00000000
W       -0.03505400       1.31200588      15.76885414  F        0       0.00000000       0.00000000       0.00000000       0.00000000       0.00000000       0.00000000
W        7.03148317       5.68442297      10.91689873  F        0       0.00000000       0.00000000       0.00000000       0.00000000       0.00000000       0.00000000
W       -1.31200588       6.96137524      11.09129810  F        0       0.00000000       0.00000000       0.00000000       0.00000000       0.00000000       0.00000000
W        8.30843449       0.03505400      15.94325352  F        0       0.00000000       0.00000000       0.00000000       0.00000000       0.00000000       0.00000000
W        9.45106792       2.51204801      17.06411171  F        0       0.00000000       0.00000000       0.00000000       0.00000000       0.00000000       0.00000000
W       -2.45463896       4.48438120      12.21215630  F        0       0.00000000       0.00000000       0.00000000       0.00000000       0.00000000       0.00000000
W       11.48081017       2.45463896      14.64799500  F        0       0.00000000       0.00000000       0.00000000       0.00000000       0.00000000       0.00000000
W       -4.48438120       4.54179001      14.64799500  F        0       0.00000000       0.00000000       0.00000000       0.00000000       0.00000000       0.00000000
W       -0.07795652       2.79218221      13.33673191  F        0       0.00000000       0.00000000       0.00000000       0.00000000       0.00000000       0.00000000
W        7.07438564       4.20424652      13.33673191  F        0       0.00000000       0.00000000       0.00000000       0.00000000       0.00000000       0.00000000
W       -2.79218221       6.91847229      13.52342033  F        0       0.00000000       0.00000000       0.00000000       0.00000000       0.00000000       0.00000000
W        9.78861141       0.07795652      18.37537575  F        0       0.00000000       0.00000000       0.00000000       0.00000000       0.00000000       0.00000000
W        6.96137524       1.31200588      18.19483185  F        0       0.00000000       0.00000000       0.00000000       0.00000000       0.00000000       0.00000000
W        0.03505400       5.68442297      13.34287643  F        0       0.00000000       0.00000000       0.00000000       0.00000000       0.00000000       0.00000000
W        5.68442297       6.96137524      13.51727581  F        0       0.00000000       0.00000000       0.00000000       0.00000000       0.00000000       0.00000000
W        1.31200588       0.03505400      18.36923027  F        0       0.00000000       0.00000000       0.00000000       0.00000000       0.00000000       0.00000000
W        2.45463896       2.51204801      14.63813400  F        0       0.00000000       0.00000000       0.00000000       0.00000000       0.00000000       0.00000000
W        4.54179001       4.48438120      14.63813400  F        0       0.00000000       0.00000000       0.00000000       0.00000000       0.00000000       0.00000000
W        4.48438120       2.45463896      17.07397270  F        0       0.00000000       0.00000000       0.00000000       0.00000000       0.00000000       0.00000000
W        2.51204801       4.54179001      12.22201824  F        0       0.00000000       0.00000000       0.00000000       0.00000000       0.00000000       0.00000000
W        6.91847229       2.79218221      15.76270866  F        0       0.00000000       0.00000000       0.00000000       0.00000000       0.00000000       0.00000000
W        0.07795652       4.20424652      15.76270866  F        0       0.00000000       0.00000000       0.00000000       0.00000000       0.00000000       0.00000000
W        4.20424652       6.91847229      11.09744358  F        0       0.00000000       0.00000000       0.00000000       0.00000000       0.00000000       0.00000000
W        2.79218221       0.07795652      15.94939804  F        0       0.00000000       0.00000000       0.00000000       0.00000000       0.00000000       0.00000000
H        6.07417547       2.53012515      25.53840213  T        2      -0.03065700      -0.08252700      -0.15352400      -0.03065700      -0.08252700      -0.15352400
H        7.62478752       2.39988231      25.71583391  T        2       0.03760600      -0.06578600      -0.16834100       0.03760600      -0.06578600      -0.16834100
O        6.92102754       2.53675826      25.05216094  T        2       0.01232600      -0.05090400      -0.13596700       0.01232600      -0.05090400      -0.13596700
67
Lattice="13.992857933044434 -1.0492963336033189e-31 -8.568154366412587e-16 -6.996428966522217 6.996428966522217 -4.851954936981201 -0.0 4.753545088342871e-15 38.81563949584961" Properties=species:S:1:pos:R:3:move_mask:L:1:tags:I:1:DFT_forces:R:3:forces:R:3 DFT_energy=-660.4322869 energy=-660.4322869 pbc="T T T"
P        8.97365856       2.10560656      19.49266434  F        0       0.00000000       0.00000000       0.00000000       0.00000000       0.00000000       0.00000000
P       -1.96032447       4.93901771      19.62561795  T        1       0.00608300      -0.00133800      -0.00052700       0.00608300      -0.00133800      -0.00052700
P       11.82924513       1.92159046      22.26463810  T        1       0.00898700      -0.00387700      -0.00171800       0.00898700      -0.00387700      -0.00171800
P       -4.89082241       5.01919985      17.07139778  F        0       0.00000000       0.00000000       0.00000000       0.00000000       0.00000000       0.00000000
P        1.78984038       2.55620202      21.90684950  T        1      -0.00151000       0.00405800      -0.00868600      -0.00151000       0.00405800      -0.00868600
P        5.01919985       4.89082241      17.06668663  F        0       0.00000000       0.00000000       0.00000000       0.00000000       0.00000000       0.00000000
P        4.89082241       1.97722936      19.49737549  F        0       0.00000000       0.00000000       0.00000000       0.00000000       0.00000000       0.00000000
P        2.11731109       5.07348674      19.64385665  T        1      -0.00671600       0.00274800      -0.00513500      -0.00671600       0.00274800      -0.00513500
W       -0.08590034       1.26909889      20.72669566  T        1      -0.01125300      -0.00490200       0.00853100      -0.01125300      -0.00490200       0.00853100
W        7.03148317       5.68442297      15.76885414  F        0       0.00000000       0.00000000       0.00000000       0.00000000       0.00000000       0.00000000
W       -1.31200588       6.96137524      15.94325352  F        0       0.00000000       0.00000000       0.00000000       0.00000000       0.00000000       0.00000000
W        8.30843449       0.03505400      20.79520798  F        0       0.00000000       0.00000000       0.00000000       0.00000000       0.00000000       0.00000000
W        9.40271088       2.21427571      21.87253701  T        1      -0.00001000       0.02421400      -0.01084100      -0.00001000       0.02421400      -0.01084100
W       -2.45463896       4.48438120      17.06411171  F        0       0.00000000       0.00000000       0.00000000       0.00000000       0.00000000       0.00000000
W       11.47099990       2.40163780      19.52735725  T        1      -0.00116600       0.00863100      -0.00652200      -0.00116600       0.00863100      -0.00652200
W       -4.44580298       4.50578903      19.38487655  T        1       0.01340600      -0.00224600      -0.00670300       0.01340600      -0.00224600      -0.00670300
W       -0.07795652       2.79218221      18.18868637  F        0       0.00000000       0.00000000       0.00000000       0.00000000       0.00000000       0.00000000
W        7.07438564       4.20424652      18.18868637  F        0       0.00000000       0.00000000       0.00000000       0.00000000       0.00000000       0.00000000
W       -2.62321400       6.95109561      18.31250924  T        1      -0.00096400       0.00288100      -0.00491700      -0.00096400       0.00288100      -0.00491700
W        9.97484058       0.00561638      23.14425021  T        1      -0.01313900       0.01202900      -0.00549200      -0.01313900       0.01202900      -0.00549200
W        7.01833614       1.47292590      22.89280460  T        1      -0.01380000       0.00090300       0.03504600      -0.01380000       0.00090300       0.03504600
W        0.06293118       5.74946488      18.22020743  T        1       0.00358800      -0.02091200      -0.00026200       0.00358800      -0.02091200      -0.00026200
W        5.87249317       6.80286156      18.20390561  T        1      -0.00576400       0.00497000      -0.00331800      -0.00576400       0.00497000      -0.00331800
W        1.52684722       0.10083227      22.98436545  T        1      -0.00509900       0.00077600      -0.00209400      -0.00509900       0.00077600      -0.00209400
W        2.46550799       2.46681736      19.43613449  T        1       0.00004100      -0.00466700       0.00035700       0.00004100      -0.00466700       0.00035700
W        4.55291390       4.46746656      19.37786964  T        1       0.00078200       0.00543300      -0.00044100       0.00078200       0.00543300      -0.00044100
W        4.29778612       2.14659059      21.91968211  T        1      -0.01689200      -0.01050000      -0.00080900      -0.01689200      -0.01050000      -0.00080900
W        2.51204801       4.54179001      17.07397270  F        0       0.00000000       0.00000000       0.00000000       0.00000000       0.00000000       0.00000000
W        6.88470758       2.74921642      20.68049908  T        1      -0.00197800      -0.00953000       0.01373100      -0.00197800      -0.00953000       0.01373100
W        0.11928194       3.88550184      20.46078705  T        1      -0.00263600       0.00075400       0.00701300      -0.00263600       0.00075400       0.00701300
W        4.20424652       6.91847229      15.94939804  F        0       0.00000000       0.00000000       0.00000000       0.00000000       0.00000000       0.00000000