66
Lattice="10.371439933776855 0.0 6.350675579455624e-16 -8.98121104193233e-16 14.667430877685547 8.98121104193233e-16 0.0 0.0 29.334861755371094" Properties=species:S:1:pos:R:3:move_mask:L:1:tags:I:1:DFT_forces:R:3:forces:R:3:magmoms:R:1 DFT_energy=-528.43061377 energy=-528.43061377 dipole="_JSON [[0.0, 0.0, 0.0]]" magmom=0.0 free_energy=-528.42138219 pbc="T T T"
Nb       3.86648130       5.50028658      11.45893097  F        0       0.00000000       0.00000000       0.00000000       0.08962900       0.12345100       1.35950200       0.00000000
Nb       3.86648130       1.83342886      15.12578869  F        0       0.00000000       0.00000000       0.00000000       0.60306400       0.03697900      -0.62203100       0.00000000
Nb      10.23201374       2.58400086      17.82955955  T        1       0.01750400       0.00045600       0.00858100       0.01750400       0.00045600       0.00858100       0.00000000
Nb      -0.00000000       6.43312931      14.19294548  F        0       0.00000000       0.00000000       0.00000000       0.00309000      -0.09736100      -0.11319200       0.00000000
Nb       2.67565554       1.24857447      17.85918485  T        1      -0.01271300      -0.02240400      -0.00484300      -0.01271300      -0.02240400      -0.00484300       0.00000000
Nb       2.59285998       4.59970045      14.22520256  F        0       0.00000000       0.00000000       0.00000000       0.00118200       0.00160800      -0.62473800       0.00000000
Nb       1.31923878       5.50028658      11.45893097  F        0       0.00000000       0.00000000       0.00000000      -0.06094900       0.10314000       1.32649400       0.00000000
Nb       1.31923878       1.83342886      15.12578869  F        0       0.00000000       0.00000000       0.00000000      -0.52316800       0.00393900      -0.12027800       0.00000000
Nb      10.35866819       4.57639052      16.06861959  T        1       0.01190200      -0.03324700       0.00657200       0.01190200      -0.03324700       0.00657200       0.00000000
Nb      -0.00000000       0.90058619      12.39177322  F        0       0.00000000       0.00000000       0.00000000       0.00362900       0.53366500      -0.61810800       0.00000000
Nb       2.59285998       2.73401499      12.35951710  F        0       0.00000000       0.00000000       0.00000000       0.01245100      -0.43664000      -0.26940100       0.00000000
Nb       2.60941798       6.46553046      16.05112924  T        1      -0.01537900       0.00539400      -0.00273900      -0.01537900       0.00539400      -0.00273900       0.00000000
Si       2.61960603       3.66893613      16.75060602  T        1      -0.01204300      -0.00830200       0.00251000      -0.01204300      -0.00830200       0.00251000       0.00000000
Si       2.59285998       0.00000000      13.29235935  F        0       0.00000000       0.00000000       0.00000000       0.01639200      -0.04608600       0.05113300       0.00000000
Ge      -0.00000000       3.66685772      13.29235935  F        0       0.00000000       0.00000000       0.00000000      -0.01152700      -0.09266900      -0.12481500       0.00000000
Ge       0.01290708       0.00119797      16.87120553  T        1      -0.00013400       0.00261900       0.01156000      -0.00013400       0.00261900       0.01156000       0.00000000
Nb       3.86648130      12.83400249      11.45893097  F        0       0.00000000       0.00000000       0.00000000       0.03882000       0.12712700       1.35019400       0.00000000
Nb       3.86648130       9.16714478      15.12578869  F        0       0.00000000       0.00000000       0.00000000       0.55163700      -0.00040000      -0.60619500       0.00000000
Nb      10.19812403       9.94948332      17.75621186  T        1       0.01487200       0.00905100       0.00402200       0.01487200       0.00905100       0.00402200       0.00000000
Nb      -0.00000000      13.76684475      14.19294548  F        0       0.00000000       0.00000000       0.00000000      -0.00672200      -0.12910400      -0.06899200       0.00000000
Nb       2.66749127       8.49028653      17.74625463  T        1      -0.02220700      -0.00387700      -0.00844700      -0.02220700      -0.00387700      -0.00844700       0.00000000
Nb       2.59285998      11.93341637      14.22520256  F        0       0.00000000       0.00000000       0.00000000       0.00749400      -0.09388200      -0.50893700       0.00000000
Nb       1.31923878      12.83400249      11.45893097  F        0       0.00000000       0.00000000       0.00000000      -0.03619400       0.08451700       1.31546800       0.00000000
Nb       1.31923878       9.16714478      15.12578869  F        0       0.00000000       0.00000000       0.00000000      -0.53933500       0.01274300      -0.45857300       0.00000000
Nb      10.36004559      11.88728445      16.05300051  T        1       0.01255400       0.01290300      -0.01043900       0.01255400       0.01290300      -0.01043900       0.00000000
Nb      -0.00000000       8.23430157      12.39177322  F        0       0.00000000       0.00000000       0.00000000      -0.01344300       0.52220700      -0.60981000       0.00000000
Nb       2.59285998      10.06773090      12.35951710  F        0       0.00000000       0.00000000       0.00000000      -0.01182100      -0.38812400      -0.25586400       0.00000000
Nb       2.60684477      13.77774198      16.06040795  T        1      -0.00556600       0.01061900      -0.00561200      -0.00556600       0.01061900      -0.00561200       0.00000000
Si       2.58808545      10.98545997      16.78030728  T        1       0.00071300      -0.01438900       0.00621200       0.00071300      -0.01438900       0.00621200       0.00000000
Si       2.59285998       7.33371544      13.29235935  F        0       0.00000000       0.00000000       0.00000000       0.00722500       0.02047500       0.06887500       0.00000000
Ge      -0.00000000      11.00057316      13.29235935  F        0       0.00000000       0.00000000       0.00000000      -0.02083600      -0.13653200      -0.15066300       0.00000000
Ge       0.01885473       7.34076591      16.89608183  T        1      -0.00884400       0.00353500       0.00292900      -0.00884400       0.00353500       0.00292900       0.00000000
Nb       9.05220127       5.50028658      11.45893097  F        0       0.00000000       0.00000000       0.00000000       0.06630800       0.12669900       1.32161200       0.00000000
Nb       9.05220127       1.83342886      15.12578869  F        0       0.00000000       0.00000000       0.00000000       0.35959700      -0.05346300      -0.63079800       0.00000000
Nb       5.10555181       2.64103217      17.74411789  T        1      -0.00504300       0.01872600       0.01584600      -0.00504300       0.01872600       0.01584600       0.00000000
Nb       5.18571997       6.43312931      14.19294548  F        0       0.00000000       0.00000000       0.00000000       0.00094400      -0.09361800      -0.15514700       0.00000000
Nb       7.81836280       1.14243664      17.73506626  T        1       0.00428600      -0.00750800      -0.00732600       0.00428600      -0.00750800      -0.00732600       0.00000000
Nb       7.77858019       4.59970045      14.22520256  F        0       0.00000000       0.00000000       0.00000000       0.06147200      -0.03074400      -0.48791300       0.00000000
Nb       6.50495911       5.50028658      11.45893097  F        0       0.00000000       0.00000000       0.00000000      -0.05572500       0.10366500       1.34691200       0.00000000
Nb       6.50495911       1.83342886      15.12578869  F        0       0.00000000       0.00000000       0.00000000      -0.49605400       0.02352700      -0.47494900       0.00000000
Nb       5.19651312       4.56436802      16.04729375  T        1       0.00634400       0.02122700      -0.02038500       0.00634400       0.02122700      -0.02038500       0.00000000
Nb       5.18571997       0.90058619      12.39177322  F        0       0.00000000       0.00000000       0.00000000      -0.03051000       0.57313800      -0.65097000       0.00000000
Nb       7.77858019       2.73401499      12.35951710  F        0       0.00000000       0.00000000       0.00000000       0.01640200      -0.46136900      -0.32021900       0.00000000
Nb       7.79608982       6.47826031      16.04198509  T        1      -0.00628200      -0.00492700      -0.01014300      -0.00628200      -0.00492700      -0.01014300       0.00000000
Si       7.80417940       3.64515464      16.77364775  T        1       0.00446800       0.00804600      -0.01215600       0.00446800       0.00804600      -0.01215600       0.00000000
Si       7.77858019       0.00000000      13.29235935  F        0       0.00000000       0.00000000       0.00000000       0.00869800       0.01441400       0.05259000       0.00000000
Ge       5.18571997       3.66685772      13.29235935  F        0       0.00000000       0.00000000       0.00000000      -0.01448500      -0.16082400      -0.16416600       0.00000000
Ge       5.16939644       0.00081111      16.88701481  T        1       0.00586100      -0.00774200      -0.00903500       0.00586100      -0.00774200      -0.00903500       0.00000000
Nb       9.05220127      12.83400249      11.45893097  F        0       0.00000000       0.00000000       0.00000000       0.03416600       0.10180900       1.34062600       0.00000000
Nb       9.05220127       9.16714478      15.12578869  F        0       0.00000000       0.00000000       0.00000000       0.57965400      -0.01985600      -0.59978800       0.00000000
Nb       5.01536714       9.95040611      17.76105598  T        1       0.03798500      -0.00295200       0.00125900       0.03798500      -0.00295200       0.00125900       0.00000000
Nb       5.18571997      13.76684475      14.19294548  F        0       0.00000000       0.00000000       0.00000000      -0.03630900      -0.21232800      -0.12776400       0.00000000
Nb       7.85255192       8.49195000      17.75722480  T        1      -0.03108300      -0.00587500      -0.00456300      -0.03108300      -0.00587500      -0.00456300       0.00000000
Nb       7.77858019      11.93341637      14.22520256  F        0       0.00000000       0.00000000       0.00000000      -0.01297700      -0.08317600      -0.56413300       0.00000000
Nb       6.50495911      12.83400249      11.45893097  F        0       0.00000000       0.00000000       0.00000000      -0.00811900       0.09632600       1.34552000       0.00000000
Nb       6.50495911       9.16714478      15.12578869  F        0       0.00000000       0.00000000       0.00000000      -0.56170500       0.01868600      -0.45306300       0.00000000
Nb       5.17419997      11.87515061      16.04690572  T        1       0.01130500       0.02703500      -0.02940100       0.01130500       0.02703500      -0.02940100       0.00000000
Nb       5.18571997       8.23430157      12.39177322  F        0       0.00000000       0.00000000       0.00000000       0.00743100       0.53830900      -0.65808700       0.00000000
Nb       7.77858019      10.06773090      12.35951710  F        0       0.00000000       0.00000000       0.00000000      -0.02428700      -0.46210000      -0.30606000       0.00000000
Nb       7.77518101      13.79036522      16.05102075  T        1       0.00569500       0.01393300      -0.00277400       0.00569500       0.01393300      -0.00277400       0.00000000
Si       7.77531149      10.98129052      16.78158865  T        1       0.00057300      -0.01687900       0.00212900       0.00057300      -0.01687900       0.00212900       0.00000000
Si       7.77858019       7.33371544      13.29235935  F        0       0.00000000       0.00000000       0.00000000       0.01605500       0.02152800       0.06602000       0.00000000
Ge       5.18571997      11.00057316      13.29235935  F        0       0.00000000       0.00000000       0.00000000      -0.01753600      -0.13728300      -0.14724000       0.00000000
Ge       5.20321586       7.33944497      16.89792843  T        1      -0.00792900       0.00423200       0.00277800      -0.00792900       0.00423200       0.00277800       0.00000000
C        1.55566333       2.15699685      19.33685568  T        2       0.00530900      -0.02090200       0.01558100       0.00530900      -0.02090200       0.01558100       0.00000000
O        0.69869944       2.80485885      19.96261377  T        2      -0.01578600      -0.04116100      -0.00516700      -0.01578600      -0.04116100      -0.00516700       0.00000000
66
Lattice="10.371439933776855 0.0 6.350675579455624e-16 -8.98121104193233e-16 14.667430877685547 8.98121104193233e-16 0.0 0.0 29.334861755371094" Properties=species:S:1:pos:R:3:move_mask:L:1:tags:I:1:DFT_forces:R:3:forces:R:3 DFT_energy=-528.19361869 energy=-528.19361869 pbc="T T T"
Nb       3.86648130       5.50028658      11.45893097  F        0       0.00000000       0.00000000       0.00000000       0.00000000       0.00000000       0.00000000
Nb       3.86648130       1.83342886      15.12578869  F        0       0.00000000       0.00000000       0.00000000       0.00000000       0.00000000       0.00000000
Nb      10.31712565       2.56885133      17.84758386  T        1       0.01041000      -0.01680600       0.03504800       0.01041000      -0.01680600       0.03504800
Nb      -0.00000000       6.43312931      14.19294548  F        0       0.00000000       0.00000000       0.00000000       0.00000000       0.00000000       0.00000000
Nb       2.66791571       1.21022988      17.89285886  T        1       0.07053200      -0.00708700      -0.07868300       0.07053200      -0.00708700      -0.07868300
Nb       2.59285998       4.59970045      14.22520256  F        0       0.00000000       0.00000000       0.00000000       0.00000000       0.00000000       0.00000000
Nb       1.31923878       5.50028658      11.45893097  F        0       0.00000000       0.00000000       0.00000000       0.00000000       0.00000000       0.00000000
Nb       1.31923878       1.83342886      15.12578869  F        0       0.00000000       0.00000000       0.00000000       0.00000000       0.00000000       0.00000000
Nb      10.36732939       4.56291806      16.07448693  T        1      -0.01073300      -0.01219500       0.01074000      -0.01073300      -0.01219500       0.01074000
Nb      -0.00000000       0.90058619      12.39177322  F        0       0.00000000       0.00000000       0.00000000       0.00000000       0.00000000       0.00000000
Nb       2.59285998       2.73401499      12.35951710  F        0       0.00000000       0.00000000       0.00000000       0.00000000       0.00000000       0.00000000
Nb       2.60289973       6.46286550      16.04876484  T        1       0.00191100       0.00673100      -0.00322200       0.00191100       0.00673100      -0.00322200
Si       2.58477086       3.64942791      16.77201772  T        1       0.01416600      -0.00361300      -0.00416500       0.01416600      -0.00361300      -0.00416500
Si       2.59285998       0.00000000      13.29235935  F        0       0.00000000       0.00000000       0.00000000       0.00000000       0.00000000       0.00000000
Ge      -0.00000000       3.66685772      13.29235935  F        0       0.00000000       0.00000000       0.00000000       0.00000000       0.00000000       0.00000000
Ge       0.00794445       0.00192570      16.88463669  T        1       0.00614300       0.00238300      -0.01827800       0.00614300       0.00238300      -0.01827800
Nb       3.86648130      12.83400249      11.45893097  F        0       0.00000000       0.00000000       0.00000000       0.00000000       0.00000000       0.00000000
Nb       3.86648130       9.16714478      15.12578869  F        0       0.00000000       0.00000000       0.00000000       0.00000000       0.00000000       0.00000000
Nb      10.25524055       9.95209489      17.74641395  T        1      -0.01081400      -0.00389500      -0.00399700      -0.01081400      -0.00389500      -0.00399700
Nb      -0.00000000      13.76684475      14.19294548  F        0       0.00000000       0.00000000       0.00000000       0.00000000       0.00000000       0.00000000
Nb       2.64627790       8.48497904      17.73899463  T        1       0.00270500       0.00814900       0.00384300       0.00270500       0.00814900       0.00384300
Nb       2.59285998      11.93341637      14.22520256  F        0       0.00000000       0.00000000       0.00000000       0.00000000       0.00000000       0.00000000
Nb       1.31923878      12.83400249      11.45893097  F        0       0.00000000       0.00000000       0.00000000       0.00000000       0.00000000       0.00000000
Nb       1.31923878       9.16714478      15.12578869  F        0       0.00000000       0.00000000       0.00000000       0.00000000       0.00000000       0.00000000
Nb      10.36480290      11.88704191      16.04754498  T        1      -0.00284400      -0.00151600      -0.00331500      -0.00284400      -0.00151600      -0.00331500
Nb      -0.00000000       8.23430157      12.39177322  F        0       0.00000000       0.00000000       0.00000000       0.00000000       0.00000000       0.00000000
Nb       2.59285998      10.06773090      12.35951710  F        0       0.00000000       0.00000000       0.00000000       0.00000000       0.00000000       0.00000000
Nb       2.60071712      13.78365165      16.05313844  T        1       0.00067900      -0.01429600      -0.00963300       0.00067900      -0.01429600      -0.00963300
Si       2.59025230      10.98034236      16.78661926  T        1       0.00311000      -0.00727300      -0.00243500       0.00311000      -0.00727300      -0.00243500
Si       2.59285998       7.33371544      13.29235935  F        0       0.00000000       0.00000000       0.00000000       0.00000000       0.00000000       0.00000000
Ge      -0.00000000      11.00057316      13.29235935  F        0       0.00000000       0.00000000       0.00000000       0.00000000       0.00000000       0.00000000
Ge       0.00821341       7.33878957      16.89171729  T        1       0.00045600       0.01291800       0.00476400       0.00045600       0.01291800       0.00476400
Nb       9.05220127       5.50028658      11.45893097  F        0       0.00000000       0.00000000       0.00000000       0.00000000       0.00000000       0.00000000
Nb       9.05220127       1.83342886      15.12578869  F        0       0.00000000       0.00000000       0.00000000       0.00000000       0.00000000       0.00000000
Nb       5.01725543       2.63433307      17.76767202  T        1       0.03505500       0.00097100      -0.02441200       0.03505500       0.00097100      -0.02441200
Nb       5.18571997       6.43312931      14.19294548  F        0       0.00000000       0.00000000       0.00000000       0.00000000       0.00000000       0.00000000
Nb       7.83906779       1.14660832      17.71668740  T        1       0.01863100      -0.00434400       0.00322500       0.01863100      -0.00434400       0.00322500
Nb       7.77858019       4.59970045      14.22520256  F        0       0.00000000       0.00000000       0.00000000       0.00000000       0.00000000       0.00000000
Nb       6.50495911       5.50028658      11.45893097  F        0       0.00000000       0.00000000       0.00000000       0.00000000       0.00000000       0.00000000
Nb       6.50495911       1.83342886      15.12578869  F        0       0.00000000       0.00000000       0.00000000       0.00000000       0.00000000       0.00000000
Nb       5.18643931       4.55220279      16.05835087  T        1       0.00213600       0.01258000      -0.01060500       0.00213600       0.01258000      -0.01060500
Nb       5.18571997       0.90058619      12.39177322  F        0       0.00000000       0.00000000       0.00000000       0.00000000       0.00000000       0.00000000
Nb       7.77858019       2.73401499      12.35951710  F        0       0.00000000       0.00000000       0.00000000       0.00000000       0.00000000       0.00000000
Nb       7.78901576       6.47583977      16.04126294  T        1       0.00338400       0.00166600       0.00218200       0.00338400       0.00166600       0.00218200
Si       7.81692185       3.64815852      16.77973398  T        1       0.00506800       0.01342000      -0.00476800       0.00506800       0.01342000      -0.00476800
Si       7.77858019       0.00000000      13.29235935  F        0       0.00000000       0.00000000       0.00000000       0.00000000       0.00000000       0.00000000
Ge       5.18571997       3.66685772      13.29235935  F        0       0.00000000       0.00000000       0.00000000       0.00000000       0.00000000       0.00000000
Ge       5.16848878       0.00958233      16.89167419  T        1       0.01556600      -0.00928000      -0.00895300       0.01556600      -0.00928000      -0.00895300
Nb       9.05220127      12.83400249      11.45893097  F        0       0.00000000       0.00000000       0.00000000       0.00000000       0.00000000       0.00000000
Nb       9.05220127       9.16714478      15.12578869  F        0       0.00000000       0.00000000       0.00000000       0.00000000       0.00000000       0.00000000
Nb       5.09147095       9.95062085      17.75064061  T        1      -0.00522000      -0.00228700       0.00443400      -0.00522000      -0.00228700       0.00443400
Nb       5.18571997      13.76684475      14.19294548  F        0       0.00000000       0.00000000       0.00000000       0.00000000       0.00000000       0.00000000
Nb       7.81878866       8.48814728      17.75562533  T        1       0.00010600       0.00259000      -0.00314200       0.00010600       0.00259000      -0.00314200
Nb       7.77858019      11.93341637      14.22520256  F        0       0.00000000       0.00000000       0.00000000       0.00000000       0.00000000       0.00000000
Nb       6.50495911      12.83400249      11.45893097  F        0       0.00000000       0.00000000       0.00000000       0.00000000       0.00000000       0.00000000
Nb       6.50495911       9.16714478      15.12578869  F        0       0.00000000       0.00000000       0.00000000       0.00000000       0.00000000       0.00000000
Nb       5.17579621      11.88535794      16.04476235  T        1       0.00003500      -0.00728000      -0.00530400       0.00003500      -0.00728000      -0.00530400
Nb       5.18571997       8.23430157      12.39177322  F        0       0.00000000       0.00000000       0.00000000       0.00000000       0.00000000       0.00000000
Nb       7.77858019      10.06773090      12.35951710  F        0       0.00000000       0.00000000       0.00000000       0.00000000       0.00000000       0.00000000
Nb       7.77489368      13.79668330      16.05077654  T        1       0.00445300      -0.00967600      -0.00674700       0.00445300      -0.00967600      -0.00674700
Si       7.77428913      10.97449816      16.78721813  T        1       0.00795100      -0.00175100      -0.00590300       0.00795100      -0.00175100      -0.00590300
Si       7.77858019       7.33371544      13.29235935  F        0       0.00000000       0.00000000       0.00000000       0.00000000       0.00000000       0.00000000
Ge       5.18571997      11.00057316      13.29235935  F        0       0.00000000       0.00000000       0.00000000       0.00000000       0.00000000       0.00000000
Ge       5.19640680       7.33624688      16.89489272  T        1      -0.00469300       0.01115500       0.00228500      -0.00469300       0.01115500       0.00228500
C        1.63214657       1.89750470      19.57632342  T        2      -0.03190700       0.02900200      -0.20634700      -0.03190700       0.02900200      -0.20634700
O        0.99616275       2.38207444      20.48365387  T        2      -0.16149100       0.05777300      -0.30898200      -0.16149100       0.05777300      -0.30898200
66
Lattice="10.371439933776855 0.0 6.350675579455624e-16 -8.98121104193233e-16 14.667430877685547 8.98121104193233e-16 0.0 0.0 29.334861755371094" Properties=species:S:1:pos:R:3:move_mask:L:1:tags:I:1:DFT_forces:R:3:forces:R:3 DFT_energy=-527.87123732 energy=-527.87123732 pbc="T T T"
Nb       3.86648130       5.50028658      11.45893097  F        0       0.00000000       0.00000000       0.00000000       0.00000000       0.00000000       0.00000000
Nb       3.86648130       1.83342886      15.12578869  F        0       0.00000000       0.00000000       0.00000000       0.00000000       0.00000000       0.00000000
Nb      10.29886545       2.60869603      17.80925900  T        1       0.00413400      -0.03219600       0.04685700       0.00413400      -0.03219600       0.04685700
Nb      -0.00000000       6.43312931      14.19294548  F        0       0.00000000       0.00000000       0.00000000       0.00000000       0.00000000       0.00000000
Nb       2.53903263       1.27296850      17.99785995  T        1       0.09434800      -0.03784800      -0.08012000       0.09434800      -0.03784800      -0.08012000
Nb       2.59285998       4.59970045      14.22520256  F        0       0.00000000       0.00000000       0.00000000       0.00000000       0.00000000       0.00000000
Nb       1.31923878       5.50028658      11.45893097  F        0       0.00000000       0.00000000       0.00000000       0.00000000       0.00000000       0.00000000
Nb       1.31923878       1.83342886      15.12578869  F        0       0.00000000       0.00000000       0.00000000       0.00000000       0.00000000       0.00000000
Nb      10.35828926       4.57220193      16.06031395  T        1       0.00947100      -0.00022000       0.01582900       0.00947100      -0.00022000       0.01582900
Nb      -0.00000000       0.90058619      12.39177322  F        0       0.00000000       0.00000000       0.00000000       0.00000000       0.00000000       0.00000000
Nb       2.59285998       2.73401499      12.35951710  F        0       0.00000000       0.00000000       0.00000000       0.00000000       0.00000000       0.00000000
Nb       2.60152283       6.47100393      16.04388790  T        1      -0.00260700      -0.00636500       0.00427300      -0.00260700      -0.00636500       0.00427300
Si       2.57775238       3.65211483      16.78656350  T        1      -0.02183700       0.00817300       0.00114600      -0.02183700       0.00817300       0.00114600
Si       2.59285998       0.00000000      13.29235935  F        0       0.00000000       0.00000000       0.00000000       0.00000000       0.00000000       0.00000000
Ge      -0.00000000       3.66685772      13.29235935  F        0       0.00000000       0.00000000       0.00000000       0.00000000       0.00000000       0.00000000
Ge       0.00854107       0.01005425      16.89626338  T        1      -0.00677600       0.00881200       0.00728900      -0.00677600       0.00881200       0.00728900
Nb       3.86648130      12.83400249      11.45893097  F        0       0.00000000       0.00000000       0.00000000       0.00000000       0.00000000       0.00000000
Nb       3.86648130       9.16714478      15.12578869  F        0       0.00000000       0.00000000       0.00000000       0.00000000       0.00000000       0.00000000
Nb      10.26740963       9.95472815      17.74504511  T        1      -0.01301300       0.00154500       0.00287800      -0.01301300       0.00154500       0.00287800
Nb      -0.00000000      13.76684475      14.19294548  F        0       0.00000000       0.00000000       0.00000000       0.00000000       0.00000000       0.00000000
Nb       2.63805503       8.48632206      17.74219505  T        1       0.00990900       0.00045400      -0.00711200       0.00990900       0.00045400      -0.00711200
Nb       2.59285998      11.93341637      14.22520256  F        0       0.00000000       0.00000000       0.00000000       0.00000000       0.00000000       0.00000000
Nb       1.31923878      12.83400249      11.45893097  F        0       0.00000000       0.00000000       0.00000000       0.00000000       0.00000000       0.00000000
Nb       1.31923878       9.16714478      15.12578869  F        0       0.00000000       0.00000000       0.00000000       0.00000000       0.00000000       0.00000000
Nb      10.36694595      11.88970946      16.04579386  T        1      -0.00344300      -0.00525100       0.00143400      -0.00344300      -0.00525100       0.00143400
Nb      -0.00000000       8.23430157      12.39177322  F        0       0.00000000       0.00000000       0.00000000       0.00000000       0.00000000       0.00000000
Nb       2.59285998      10.06773090      12.35951710  F        0       0.00000000       0.00000000       0.00000000       0.00000000       0.00000000       0.00000000
Nb       2.59027054      13.80735223      16.06087519  T        1       0.00652700      -0.01923600      -0.01779700       0.00652700      -0.01923600      -0.01779700
Si       2.58774257      10.98235148      16.78580411  T        1       0.00261600      -0.00446200       0.00126600       0.00261600      -0.00446200       0.00126600
Si       2.59285998       7.33371544      13.29235935  F        0       0.00000000       0.00000000       0.00000000       0.00000000       0.00000000       0.00000000
Ge      -0.00000000      11.00057316      13.29235935  F        0       0.00000000       0.00000000       0.00000000       0.00000000       0.00000000       0.00000000
Ge       0.00541383       7.34282704      16.89373239  T        1      -0.00088000       0.00115400      -0.00125000      -0.00088000       0.00115400      -0.00125000
Nb       9.05220127       5.50028658      11.45893097  F        0       0.00000000       0.00000000       0.00000000       0.00000000       0.00000000       0.00000000
Nb       9.05220127       1.83342886      15.12578869  F        0       0.00000000       0.00000000       0.00000000       0.00000000       0.00000000       0.00000000