55
Lattice="8.87553882598877 0.0 5.434699973646336e-16 -4.437769412994385 7.686441898345947 5.434699973646336e-16 0.0 0.0 32.610809326171875" Properties=species:S:1:pos:R:3:move_mask:L:1:tags:I:1:DFT_forces:R:3:forces:R:3:magmoms:R:1 DFT_energy=-518.43268609 energy=-518.43268609 dipole="_JSON [[0.0, 0.0, 0.0]]" magmom=0.0 free_energy=-518.47975959 pbc="T T T"
Fe       2.21888471       1.28107369      11.32319832  F        0       0.00000000       0.00000000       0.00000000      -0.00071100       0.00171500       2.55536000       0.00000000
Fe       0.00000000       0.00000000      14.94662189  F        0       0.00000000       0.00000000       0.00000000      -0.04502300      -0.00933900      -0.07485600       0.00000000
Fe       0.00000000       2.56214738      18.57004547  F        0       0.00000000       0.00000000       0.00000000      -0.02999700       0.00928600       0.24012300       0.00000000
Os       2.21232656       3.86565663      20.25501891  T        1       0.01352300       0.00845400      -0.00867400       0.01352300       0.00845400      -0.00867400       0.00000000
Os       0.00000000       2.56214738      13.13490963  F        0       0.00000000       0.00000000       0.00000000       0.00336700      -0.00239600      -0.23062600       0.00000000
Os       2.21888471       1.28107369      16.75833321  F        0       0.00000000       0.00000000       0.00000000      -0.01328500       0.00264400       0.22686000       0.00000000
Ta       0.00000000       2.56214738      15.85247707  F        0       0.00000000       0.00000000       0.00000000       0.02947100      -0.01104100      -0.36399400       0.00000000
Ta       2.22594124       1.27900650      19.59259890  T        1      -0.00348000       0.00027300      -0.00952900      -0.00348000       0.00027300      -0.00952900       0.00000000
Ta       0.00000000       0.00000000      12.22905445  F        0       0.00000000       0.00000000       0.00000000       0.01174000      -0.00301900      -0.67255300       0.00000000
Ta       0.00000000       0.00000000      17.66418839  F        0       0.00000000       0.00000000       0.00000000       0.02376700      -0.01440800      -0.16673400       0.00000000
Ta       0.01393654       2.56228414      21.03613039  T        1      -0.00346300      -0.01213100       0.01068600      -0.00346300      -0.01213100       0.01068600       0.00000000
Ta       2.21888471       1.28107369      14.04076576  F        0       0.00000000       0.00000000       0.00000000       0.00369100      -0.00490100      -1.44915500       0.00000000
Fe      -0.00000000       5.12429476      11.32319832  F        0       0.00000000       0.00000000       0.00000000       0.00567100       0.00110700       2.54935700       0.00000000
Fe      -2.21888471       3.84322095      14.94662189  F        0       0.00000000       0.00000000       0.00000000       0.01107500      -0.01553000      -0.04942600       0.00000000
Fe      -2.21888471       6.40536833      18.57004547  F        0       0.00000000       0.00000000       0.00000000       0.00028000      -0.02671900       0.10633200       0.00000000
Os       0.02210025       7.67372518      20.27224936  T        1       0.00181000       0.00585500      -0.00443300       0.00181000       0.00585500      -0.00443300       0.00000000
Os      -2.21888471       6.40536833      13.13490963  F        0       0.00000000       0.00000000       0.00000000      -0.00149200       0.00253600      -0.23862500       0.00000000
Os       0.00000000       5.12429476      16.75833321  F        0       0.00000000       0.00000000       0.00000000       0.02000200      -0.00633500       0.23941900       0.00000000
Ta      -2.21888471       6.40536833      15.85247707  F        0       0.00000000       0.00000000       0.00000000       0.00459300       0.03251300      -0.31149600       0.00000000
Ta       0.00934330       5.13435737      19.58789563  T        1       0.00859800      -0.00507300      -0.00100600       0.00859800      -0.00507300      -0.00100600       0.00000000
Ta      -2.21888471       3.84322095      12.22905445  F        0       0.00000000       0.00000000       0.00000000      -0.00313200       0.00601200      -0.66600600       0.00000000
Ta      -2.21888471       3.84322095      17.66418839  F        0       0.00000000       0.00000000       0.00000000      -0.02591900       0.02101800      -0.17713700       0.00000000
Ta      -2.23084415       6.41773856      21.02365340  T        1      -0.00416100      -0.01143400       0.00770200      -0.00416100      -0.01143400       0.00770200       0.00000000
Ta       0.00000000       5.12429476      14.04076576  F        0       0.00000000       0.00000000       0.00000000      -0.01832800       0.00427900      -1.47795200       0.00000000
Fe       6.65665388       1.28107369      11.32319832  F        0       0.00000000       0.00000000       0.00000000      -0.00019500      -0.00449000       2.55065800       0.00000000
Fe       4.43776941       0.00000000      14.94662189  F        0       0.00000000       0.00000000       0.00000000       0.06144200      -0.02807600      -0.05394500       0.00000000
Fe       4.43776941       2.56214738      18.57004547  F        0       0.00000000       0.00000000       0.00000000       0.04772700      -0.00789000       0.17285800       0.00000000
Os      -2.21072859       3.84054398      20.24442072  T        1      -0.00149900       0.00051500       0.00626300      -0.00149900       0.00051500       0.00626300       0.00000000
Os       4.43776941       2.56214738      13.13490963  F        0       0.00000000       0.00000000       0.00000000      -0.00018400       0.00089100      -0.23542600       0.00000000
Os       6.65665388       1.28107369      16.75833321  F        0       0.00000000       0.00000000       0.00000000       0.01030800      -0.01336400       0.26542900       0.00000000
Ta       4.43776941       2.56214738      15.85247707  F        0       0.00000000       0.00000000       0.00000000      -0.03167700      -0.01507700      -0.33148800       0.00000000
Ta       6.65136678       1.27067280      19.59423110  T        1       0.02178900      -0.00619500      -0.00061000       0.02178900      -0.00619500      -0.00061000       0.00000000
Ta       4.43776941       0.00000000      12.22905445  F        0       0.00000000       0.00000000       0.00000000      -0.01054800       0.00074800      -0.67652700       0.00000000
Ta       4.43776941       0.00000000      17.66418839  F        0       0.00000000       0.00000000       0.00000000      -0.03027000       0.00968100      -0.04580000       0.00000000
Ta       4.42505080       2.56844351      21.02712988  T        1       0.01105000      -0.00509500       0.01345300       0.01105000      -0.00509500       0.01345300       0.00000000
Ta       6.65665388       1.28107369      14.04076576  F        0       0.00000000       0.00000000       0.00000000      -0.00929100       0.01271900      -1.47421900       0.00000000
Fe       4.43776941       5.12429476      11.32319832  F        0       0.00000000       0.00000000       0.00000000      -0.00528300       0.00151700       2.54608800       0.00000000
Fe       2.21888471       3.84322095      14.94662189  F        0       0.00000000       0.00000000       0.00000000      -0.00891200       0.03533200      -0.08032300       0.00000000
Fe       2.21888471       6.40536833      18.57004547  F        0       0.00000000       0.00000000       0.00000000      -0.05264200       0.05930100      -0.23453000       0.00000000
Os       4.41378927       7.68633552      20.25290149  T        1       0.00306000      -0.00976100       0.00695900       0.00306000      -0.00976100       0.00695900       0.00000000
Os       2.21888471       6.40536833      13.13490963  F        0       0.00000000       0.00000000       0.00000000      -0.00120800       0.00151400      -0.23433600       0.00000000
Os       4.43776941       5.12429476      16.75833321  F        0       0.00000000       0.00000000       0.00000000      -0.01865400       0.01580500       0.23028700       0.00000000
Ta       2.21888471       6.40536833      15.85247707  F        0       0.00000000       0.00000000       0.00000000       0.01371300      -0.01278700      -0.22507300       0.00000000
Ta       4.43080297       5.12878660      19.59124290  T        1      -0.00225000       0.00871500      -0.00574600      -0.00225000       0.00871500      -0.00574600       0.00000000
Ta       2.21888471       3.84322095      12.22905445  F        0       0.00000000       0.00000000       0.00000000       0.00306900      -0.00532200      -0.67694900       0.00000000
Ta       2.21888471       3.84322095      17.66418839  F        0       0.00000000       0.00000000       0.00000000       0.03032900      -0.01060600      -0.18342500       0.00000000
Ta       2.25007337       6.38517766      21.16027341  T        1      -0.01316000       0.01615700       0.00888500      -0.01316000       0.01615700       0.00888500       0.00000000
Ta       4.43776941       5.12429476      14.04076576  F        0       0.00000000       0.00000000       0.00000000       0.01858900      -0.00697400      -1.46478500       0.00000000
C        1.12506387       6.69646024      23.79512160  T        2       0.00232100      -0.00459200       0.01502100       0.00232100      -0.00459200       0.01502100       0.00000000
C        2.47148324       6.44566739      23.65643807  T        2      -0.01297900      -0.00235500       0.00591500      -0.01297900      -0.00235500       0.00591500       0.00000000
H        5.13725272       0.01043890      23.65651963  T        2      -0.01050700      -0.02449200       0.02852100      -0.01050700      -0.02449200       0.02852100       0.00000000
H       -0.65011447       5.97216868      23.91123021  T        2       0.00164800      -0.01122900       0.01884800       0.00164800      -0.01122900       0.01884800       0.00000000
H        2.87323175       5.45979576      23.90883070  T        2       0.00839000       0.00190900      -0.00403700       0.00839000       0.00190900      -0.00403700       0.00000000
H        3.16399848       7.29368897      23.63201835  T        2      -0.02298200       0.00037400       0.01421200      -0.02298200       0.00037400       0.01421200       0.00000000
O        0.26493533       5.69936441      24.13811538  T        2       0.01020600       0.02976200       0.01018300       0.01020600       0.02976200       0.01018300       0.00000000
55
Lattice="8.87553882598877 0.0 5.434699973646336e-16 -4.437769412994385 7.686441898345947 5.434699973646336e-16 0.0 0.0 32.610809326171875" Properties=species:S:1:pos:R:3:move_mask:L:1:tags:I:1:DFT_forces:R:3:forces:R:3 DFT_energy=-518.35834031 energy=-518.35834031 pbc="T T T"
Fe       2.21888471       1.28107369      11.32319832  F        0       0.00000000       0.00000000       0.00000000       0.00000000       0.00000000       0.00000000
Fe       0.00000000       0.00000000      14.94662189  F        0       0.00000000       0.00000000       0.00000000       0.00000000       0.00000000       0.00000000
Fe       0.00000000       2.56214738      18.57004547  F        0       0.00000000       0.00000000       0.00000000       0.00000000       0.00000000       0.00000000
Os       2.21479003       3.87023056      20.26011015  T        1       0.00181500       0.00733900       0.01027100       0.00181500       0.00733900       0.01027100
Os       0.00000000       2.56214738      13.13490963  F        0       0.00000000       0.00000000       0.00000000       0.00000000       0.00000000       0.00000000
Os       2.21888471       1.28107369      16.75833321  F        0       0.00000000       0.00000000       0.00000000       0.00000000       0.00000000       0.00000000
Ta       0.00000000       2.56214738      15.85247707  F        0       0.00000000       0.00000000       0.00000000       0.00000000       0.00000000       0.00000000
Ta       2.21851904       1.27908821      19.59971592  T        1       0.00541300       0.00172200       0.00395400       0.00541300       0.00172200       0.00395400
Ta       0.00000000       0.00000000      12.22905445  F        0       0.00000000       0.00000000       0.00000000       0.00000000       0.00000000       0.00000000
Ta       0.00000000       0.00000000      17.66418839  F        0       0.00000000       0.00000000       0.00000000       0.00000000       0.00000000       0.00000000
Ta       0.00890495       2.55703522      21.03298813  T        1       0.00802100       0.00278900      -0.00266900       0.00802100       0.00278900      -0.00266900
Ta       2.21888471       1.28107369      14.04076576  F        0       0.00000000       0.00000000       0.00000000       0.00000000       0.00000000       0.00000000
Fe      -0.00000000       5.12429476      11.32319832  F        0       0.00000000       0.00000000       0.00000000       0.00000000       0.00000000       0.00000000
Fe      -2.21888471       3.84322095      14.94662189  F        0       0.00000000       0.00000000       0.00000000       0.00000000       0.00000000       0.00000000
Fe      -2.21888471       6.40536833      18.57004547  F        0       0.00000000       0.00000000       0.00000000       0.00000000       0.00000000       0.00000000
Os       0.02386942       7.67111162      20.26901668  T        1      -0.01436400       0.00744300      -0.00271800      -0.01436400       0.00744300      -0.00271800
Os      -2.21888471       6.40536833      13.13490963  F        0       0.00000000       0.00000000       0.00000000       0.00000000       0.00000000       0.00000000
Os       0.00000000       5.12429476      16.75833321  F        0       0.00000000       0.00000000       0.00000000       0.00000000       0.00000000       0.00000000
Ta      -2.21888471       6.40536833      15.85247707  F        0       0.00000000       0.00000000       0.00000000       0.00000000       0.00000000       0.00000000
Ta       0.00603190       5.12987077      19.59289040  T        1       0.00807100      -0.01239000      -0.00651300       0.00807100      -0.01239000      -0.00651300
Ta      -2.21888471       3.84322095      12.22905445  F        0       0.00000000       0.00000000       0.00000000       0.00000000       0.00000000       0.00000000
Ta      -2.21888471       3.84322095      17.66418839  F        0       0.00000000       0.00000000       0.00000000       0.00000000       0.00000000       0.00000000
Ta      -2.22466333       6.41495873      21.02666493  T        1       0.00022900       0.00453200       0.01530000       0.00022900       0.00453200       0.01530000
Ta       0.00000000       5.12429476      14.04076576  F        0       0.00000000       0.00000000       0.00000000       0.00000000       0.00000000       0.00000000
Fe       6.65665388       1.28107369      11.32319832  F        0       0.00000000       0.00000000       0.00000000       0.00000000       0.00000000       0.00000000
Fe       4.43776941       0.00000000      14.94662189  F        0       0.00000000       0.00000000       0.00000000       0.00000000       0.00000000       0.00000000
Fe       4.43776941       2.56214738      18.57004547  F        0       0.00000000       0.00000000       0.00000000       0.00000000       0.00000000       0.00000000
Os      -2.21874515       3.84137723      20.24618350  T        1       0.00264500      -0.00689300      -0.00822400       0.00264500      -0.00689300      -0.00822400
Os       4.43776941       2.56214738      13.13490963  F        0       0.00000000       0.00000000       0.00000000       0.00000000       0.00000000       0.00000000
Os       6.65665388       1.28107369      16.75833321  F        0       0.00000000       0.00000000       0.00000000       0.00000000       0.00000000       0.00000000
Ta       4.43776941       2.56214738      15.85247707  F        0       0.00000000       0.00000000       0.00000000       0.00000000       0.00000000       0.00000000
Ta       6.65347436       1.26934912      19.59862428  T        1       0.00627000       0.00169800      -0.00838000       0.00627000       0.00169800      -0.00838000
Ta       4.43776941       0.00000000      12.22905445  F        0       0.00000000       0.00000000       0.00000000       0.00000000       0.00000000       0.00000000
Ta       4.43776941       0.00000000      17.66418839  F        0       0.00000000       0.00000000       0.00000000       0.00000000       0.00000000       0.00000000
Ta       4.42535995       2.55924704      21.03015053  T        1      -0.00513700       0.00259700      -0.00208800      -0.00513700       0.00259700      -0.00208800
Ta       6.65665388       1.28107369      14.04076576  F        0       0.00000000       0.00000000       0.00000000       0.00000000       0.00000000       0.00000000
Fe       4.43776941       5.12429476      11.32319832  F        0       0.00000000       0.00000000       0.00000000       0.00000000       0.00000000       0.00000000
Fe       2.21888471       3.84322095      14.94662189  F        0       0.00000000       0.00000000       0.00000000       0.00000000       0.00000000       0.00000000
Fe       2.21888471       6.40536833      18.57004547  F        0       0.00000000       0.00000000       0.00000000       0.00000000       0.00000000       0.00000000
Os       8.84597473      -0.01225791      20.26313866  T        1      -0.00438400      -0.00860600      -0.00131700      -0.00438400      -0.00860600      -0.00131700
Os       2.21888471       6.40536833      13.13490963  F        0       0.00000000       0.00000000       0.00000000       0.00000000       0.00000000       0.00000000
Os       4.43776941       5.12429476      16.75833321  F        0       0.00000000       0.00000000       0.00000000       0.00000000       0.00000000       0.00000000
Ta       2.21888471       6.40536833      15.85247707  F        0       0.00000000       0.00000000       0.00000000       0.00000000       0.00000000       0.00000000
Ta       4.42675102       5.12964316      19.59570270  T        1      -0.01429100      -0.00026200       0.01100200      -0.01429100      -0.00026200       0.01100200
Ta       2.21888471       3.84322095      12.22905445  F        0       0.00000000       0.00000000       0.00000000       0.00000000       0.00000000       0.00000000
Ta       2.21888471       3.84322095      17.66418839  F        0       0.00000000       0.00000000       0.00000000       0.00000000       0.00000000       0.00000000
Ta       2.21480419       6.39406801      21.17281737  T        1       0.00089400      -0.00467500      -0.02269300       0.00089400      -0.00467500      -0.02269300
Ta       4.43776941       5.12429476      14.04076576  F        0       0.00000000       0.00000000       0.00000000       0.00000000       0.00000000       0.00000000
C        1.16668784       6.64210299      24.28813866  T        2       0.02569300       0.00429500      -0.06471700       0.02569300       0.00429500      -0.06471700
C        2.42953855       6.40177451      23.81953278  T        2       0.04135900       0.00334600      -0.05542300       0.04135900       0.00334600      -0.05542300
H        5.15497014      -0.04249035      24.27144453  T        2       0.01555300      -0.03830700      -0.05373400       0.01555300      -0.03830700      -0.05373400
H       -0.49545421       5.98180761      24.99948825  T        2      -0.00531100       0.00113200      -0.03424700      -0.00531100       0.00113200      -0.03424700
H        2.89734709       5.42344768      23.97200646  T        2      -0.03455800       0.01063200      -0.05262300      -0.03455800       0.01063200      -0.05262300
H        3.08855869       7.26281382      23.65277673  T        2      -0.02848200       0.00829600      -0.03075700      -0.02848200       0.00829600      -0.03075700
O        0.39942941       5.64340628      24.80706298  T        2       0.03213000       0.02445800      -0.06024800       0.03213000       0.02445800      -0.06024800
55
Lattice="8.87553882598877 0.0 5.434699973646336e-16 -4.437769412994385 7.686441898345947 5.434699973646336e-16 0.0 0.0 32.610809326171875" Properties=species:S:1:pos:R:3:move_mask:L:1:tags:I:1:DFT_forces:R:3:forces:R:3 DFT_energy=-518.20879149 energy=-518.20879149 pbc="T T T"
Fe       2.21888471       1.28107369      11.32319832  F        0       0.00000000       0.00000000       0.00000000       0.00000000       0.00000000       0.00000000
Fe       0.00000000       0.00000000      14.94662189  F        0       0.00000000       0.00000000       0.00000000       0.00000000       0.00000000       0.00000000
Fe       0.00000000       2.56214738      18.57004547  F        0       0.00000000       0.00000000       0.00000000       0.00000000       0.00000000       0.00000000
Os       2.21610504       3.86283600      20.25728479  T        1      -0.00579500       0.01559900       0.00775600      -0.00579500       0.01559900       0.00775600
Os       0.00000000       2.56214738      13.13490963  F        0       0.00000000       0.00000000       0.00000000       0.00000000       0.00000000       0.00000000
Os       2.21888471       1.28107369      16.75833321  F        0       0.00000000       0.00000000       0.00000000       0.00000000       0.00000000       0.00000000
Ta       0.00000000       2.56214738      15.85247707  F        0       0.00000000       0.00000000       0.00000000       0.00000000       0.00000000       0.00000000
Ta       2.21661507       1.28090974      19.59925323  T        1       0.00875600      -0.00264600       0.01090300       0.00875600      -0.00264600       0.01090300
Ta       0.00000000       0.00000000      12.22905445  F        0       0.00000000       0.00000000       0.00000000       0.00000000       0.00000000       0.00000000
Ta       0.00000000       0.00000000      17.66418839  F        0       0.00000000       0.00000000       0.00000000       0.00000000       0.00000000       0.00000000
Ta       0.00533305       2.56039504      21.03584587  T        1       0.00705100       0.00215200      -0.01029300       0.00705100       0.00215200      -0.01029300
Ta       2.21888471       1.28107369      14.04076576  F        0       0.00000000       0.00000000       0.00000000       0.00000000       0.00000000       0.00000000
Fe      -0.00000000       5.12429476      11.32319832  F        0       0.00000000       0.00000000       0.00000000       0.00000000       0.00000000       0.00000000
Fe      -2.21888471       3.84322095      14.94662189  F        0       0.00000000       0.00000000       0.00000000       0.00000000       0.00000000       0.00000000
Fe      -2.21888471       6.40536833      18.57004547  F        0       0.00000000       0.00000000       0.00000000       0.00000000       0.00000000       0.00000000
Os       0.01666713       7.67630697      20.26171164  T        1      -0.01409400       0.00518200      -0.00303900      -0.01409400       0.00518200      -0.00303900
Os      -2.21888471       6.40536833      13.13490963  F        0       0.00000000       0.00000000       0.00000000       0.00000000       0.00000000       0.00000000
Os       0.00000000       5.12429476      16.75833321  F        0       0.00000000       0.00000000       0.00000000       0.00000000       0.00000000       0.00000000
Ta      -2.21888471       6.40536833      15.85247707  F        0       0.00000000       0.00000000       0.00000000       0.00000000       0.00000000       0.00000000
Ta       0.00413787       5.12914418      19.59395851  T        1       0.00907800      -0.01153100       0.00802400       0.00907800      -0.01153100       0.00802400
Ta      -2.21888471       3.84322095      12.22905445  F        0       0.00000000       0.00000000       0.00000000       0.00000000       0.00000000       0.00000000
Ta      -2.21888471       3.84322095      17.66418839  F        0       0.00000000       0.00000000       0.00000000       0.00000000       0.00000000       0.00000000
Ta      -2.22337818       6.41328579      21.03006456  T        1       0.00313700      -0.00275600       0.00013100       0.00313700      -0.00275600       0.00013100
Ta       0.00000000       5.12429476      14.04076576  F        0       0.00000000       0.00000000       0.00000000       0.00000000       0.00000000       0.00000000
Fe       6.65665388       1.28107369      11.32319832  F        0       0.00000000       0.00000000       0.00000000       0.00000000       0.00000000       0.00000000
Fe       4.43776941       0.00000000      14.94662189  F        0       0.00000000       0.00000000       0.00000000       0.00000000       0.00000000       0.00000000
Fe       4.43776941       2.56214738      18.57004547  F        0       0.00000000       0.00000000       0.00000000       0.00000000       0.00000000       0.00000000
Os      -2.21982809       3.84244872      20.24669032  T        1       0.00293500       0.00268600      -0.00116800       0.00293500       0.00268600      -0.00116800
Os       4.43776941       2.56214738      13.13490963  F        0       0.00000000       0.00000000       0.00000000       0.00000000       0.00000000       0.00000000
Os       6.65665388       1.28107369      16.75833321  F        0       0.00000000       0.00000000       0.00000000       0.00000000       0.00000000       0.00000000
Ta       4.43776941       2.56214738      15.85247707  F        0       0.00000000       0.00000000       0.00000000       0.00000000       0.00000000       0.00000000
Ta       6.65401268       1.27349256      19.59848285  T        1       0.00974400      -0.00348400      -0.00215700       0.00974400      -0.00348400      -0.00215700
Ta       4.43776941       0.00000000      12.22905445  F        0       0.00000000       0.00000000       0.00000000       0.00000000       0.00000000       0.00000000
Ta       4.43776941       0.00000000      17.66418839  F        0       0.00000000       0.00000000       0.00000000       0.00000000       0.00000000       0.00000000
Ta       4.42810609       2.56037835      21.03211383  T        1      -0.00183100       0.00288100      -0.00597200      -0.00183100       0.00288100      -0.00597200
Ta       6.65665388       1.28107369      14.04076576  F        0       0.00000000       0.00000000       0.00000000       0.00000000       0.00000000       0.00000000
Fe       4.43776941       5.12429476      11.32319832  F        0       0.00000000       0.00000000       0.00000000       0.00000000       0.00000000       0.00000000
Fe       2.21888471       3.84322095      14.94662189  F        0       0.00000000       0.00000000       0.00000000       0.00000000       0.00000000       0.00000000
Fe       2.21888471       6.40536833      18.57004547  F        0       0.00000000       0.00000000       0.00000000       0.00000000       0.00000000       0.00000000
Os       8.85385216      -0.00779588      20.26121416  T        1      -0.00858200      -0.00658700      -0.00351200      -0.00858200      -0.00658700      -0.00351200
Os       2.21888471       6.40536833      13.13490963  F        0       0.00000000       0.00000000       0.00000000       0.00000000       0.00000000       0.00000000
Os       4.43776941       5.12429476      16.75833321  F        0       0.00000000       0.00000000       0.00000000       0.00000000       0.00000000       0.00000000
Ta       2.21888471       6.40536833      15.85247707  F        0       0.00000000       0.00000000       0.00000000       0.00000000       0.00000000       0.00000000
Ta       4.42925599       5.12917940      19.59515830  T        1      -0.00755600      -0.00098600       0.02258200      -0.00755600      -0.00098600       0.02258200
Ta       2.21888471       3.84322095      12.22905445  F        0       0.00000000       0.00000000       0.00000000       0.00000000       0.00000000       0.00000000
Ta       2.21888471       3.84322095      17.66418839  F        0       0.00000000       0.00000000       0.00000000       0.00000000       0.00000000       0.00000000
Ta       2.21524273       6.40069020      21.13073127  T        1       0.00045800      -0.00434600       0.00472500       0.00045800      -0.00434600       0.00472500
Ta       4.43776941       5.12429476      14.04076576  F        0       0.00000000       0.00000000       0.00000000       0.00000000       0.00000000       0.00000000
C        1.17732279       6.63780329      24.61904804  T        2      -0.01009600       0.00689200      -0.07310200      -0.01009600       0.00689200      -0.07310200
C        2.46034519       6.40708725      24.24907064  T        2       0.01579400      -0.01579700      -0.06568000       0.01579400      -0.01579700      -0.06568000
H        5.17275703      -0.04481954      24.59612945  T        2       0.00013200       0.00441600      -0.04249400       0.00013200       0.00441600      -0.04249400
H       -0.54097052       5.98205471      25.20262423  T        2       0.01764400       0.00859100      -0.02526200       0.01764400       0.00859100      -0.02526200
H        2.90653782       5.41528025      24.35999995  T        2      -0.00226400      -0.01016500      -0.07768700      -0.00226400      -0.01016500      -0.07768700
H        3.11718864       7.25762669      24.05177913  T        2      -0.02383600       0.00037200      -0.05009000      -0.02383600       0.00037200      -0.05009000
O        0.35533690       5.63040729      25.04971899  T        2       0.03713800      -0.00068400      -0.05133800       0.03713800      -0.00068400      -0.05133800
55
Lattice="8.87553882598877 0.0 5.434699973646336e-16 -4.437769412994385 7.686441898345947 5.434699973646336e-16 0.0 0.0 32.610809326171875" Properties=species:S:1:pos:R:3:move_mask:L:1:tags:I:1:DFT_forces:R:3:forces:R:3 DFT_energy=-518.10294732 energy=-518.10294732 pbc="T T T"