69
Lattice="14.57761287689209 -1.0931459169214777e-31 -8.926213192667109e-16 -3.6444032192230225 13.868426322937012 2.1040971279144287 -0.0 3.607486217301753e-15 29.457361221313477" Properties=species:S:1:pos:R:3:move_mask:L:1:tags:I:1:DFT_forces:R:3:forces:R:3:magmoms:R:1 DFT_energy=-237.29061133 energy=-237.29061133 dipole="_JSON [[0.0, 0.0, 0.0]]" magmom=0.0 free_energy=-237.25792102 pbc="T T T"
In       5.64096573       5.60570408      17.43764775  T        1      -0.02011000      -0.02781800       0.01972100      -0.02011000      -0.02781800       0.01972100       0.00000000
In      -1.62464475      12.53358529      17.36866873  T        1       0.00626700       0.00439400       0.00896500       0.00626700       0.00439400       0.00896500       0.00000000
In       2.27577055       5.75603237      19.24378002  T        1       0.02538200      -0.01288200       0.01035000       0.02538200      -0.01288200       0.01035000       0.00000000
In       2.34323888      12.74017058      19.02110685  T        1      -0.00027600      -0.01579200       0.00169800      -0.00027600      -0.01579200       0.00169800       0.00000000
Cu       0.15478875       1.62343397      16.56050250  T        1      -0.00120100      -0.00692500      -0.01213900      -0.00120100      -0.00692500      -0.01213900       0.00000000
Cu       0.81268793       8.69094086      17.29687881  F        0       0.00000000       0.00000000       0.00000000       0.10489700       0.01378600       0.08748900       0.00000000
Cu       4.45709133       1.75672793      15.19278049  F        0       0.00000000       0.00000000       0.00000000       0.17474500       0.15231000       0.20067900       0.00000000
Cu       3.96109287       9.08031024      18.74854047  T        1       0.00828200       0.00830200      -0.00719900       0.00828200       0.00830200      -0.00719900       0.00000000
Se       0.82559658       4.41576991      17.35168024  T        1      -0.00072600      -0.01578700      -0.01537500      -0.00072600      -0.01578700      -0.01537500       0.00000000
Se       0.81268793      11.29540062      17.29687881  F        0       0.00000000       0.00000000       0.00000000       0.01804300       0.16930500       0.13258600       0.00000000
Se       4.51217037       4.50337800      19.53075452  T        1       0.00810900       0.01445800      -0.01367100       0.00810900       0.01445800      -0.01367100       0.00000000
Se      -2.80054908      11.33222371      19.46756524  T        1       0.00152700      -0.01412600      -0.01186500       0.00152700      -0.01412600      -0.01186500       0.00000000
Se       5.32679862       1.27602310      17.48112462  T        1      -0.01178000       0.00087300       0.00915000      -0.01178000       0.00087300       0.00915000       0.00000000
Se      -1.61691415       8.23499489      17.29687881  F        0       0.00000000       0.00000000       0.00000000      -0.07966700      -0.07356600      -0.14949700       0.00000000
Se       2.02748895       1.30078208      15.19278049  F        0       0.00000000       0.00000000       0.00000000      -0.10681100      -0.34317400      -0.17600000       0.00000000
Se       1.85179818       8.27770500      19.47572891  T        1      -0.01432400       0.01839900       0.00642800      -0.01432400       0.01839900       0.00642800       0.00000000
In       5.67189217       5.63343096      13.08868408  F        0       0.00000000       0.00000000       0.00000000       0.71958900       0.03181400       0.36008800       0.00000000
In      -1.61691415      12.56764412      13.08868408  F        0       0.00000000       0.00000000       0.00000000       0.75110800       0.00327300       0.23078600       0.00000000
In       2.02748895       5.63343096      15.19278049  F        0       0.00000000       0.00000000       0.00000000      -0.29677000      -0.53831800      -0.40107800       0.00000000
In       2.02748895      12.56764412      15.19278049  F        0       0.00000000       0.00000000       0.00000000      -0.29952600      -0.57994900      -0.63944800       0.00000000
Cu       0.81268793       1.75672793      13.08868408  F        0       0.00000000       0.00000000       0.00000000       0.06476600       0.30350400       0.06069600       0.00000000
Cu       0.81268793       8.69094086      13.08868408  F        0       0.00000000       0.00000000       0.00000000      -0.65485900       0.50605500       0.92390900       0.00000000
Cu       4.45709133       1.75672793      10.98458672  F        0       0.00000000       0.00000000       0.00000000      -0.70148700      -0.58161200       0.92012000       0.00000000
Cu       4.45709133       8.69094086      15.19278049  F        0       0.00000000       0.00000000       0.00000000       0.16400000       0.00404300      -0.00495300       0.00000000
Se       0.81268793       4.36118746      13.08868408  F        0       0.00000000       0.00000000       0.00000000      -0.18329000       0.34154900      -0.02273000       0.00000000
Se       0.81268793      11.29540062      13.08868408  F        0       0.00000000       0.00000000       0.00000000      -0.10535400       0.06197100      -0.14841500       0.00000000
Se       4.45709133       4.36118746      15.19278049  F        0       0.00000000       0.00000000       0.00000000      -0.09746000       0.19077500       0.05028100       0.00000000
Se      -2.83171535      11.29540062      15.19278049  F        0       0.00000000       0.00000000       0.00000000      -0.14297500       0.11560200      -0.05410200       0.00000000
Se       5.67189217       1.30078208      13.08868408  F        0       0.00000000       0.00000000       0.00000000       0.04851800       0.34501000      -0.39023400       0.00000000
Se      -1.61691415       8.23499489      13.08868408  F        0       0.00000000       0.00000000       0.00000000       0.22427600      -0.16510300      -0.30459800       0.00000000
Se       2.02748895       1.30078208      10.98458672  F        0       0.00000000       0.00000000       0.00000000       0.31166200       0.08411600      -0.30473800       0.00000000
Se       2.02748895       8.23499489      15.19278049  F        0       0.00000000       0.00000000       0.00000000       0.09128000      -0.03689600      -0.31742400       0.00000000
In      12.97072529       5.59651266      17.39075335  T        1      -0.01797300      -0.00108800       0.00096200      -0.01797300      -0.00108800       0.00096200       0.00000000
In       5.65990690      12.53006848      17.37332538  T        1       0.00371000       0.00311600       0.00669900       0.00371000       0.00311600       0.00669900       0.00000000
In       9.66636441       5.92055332      19.06025306  T        1      -0.00832800       0.02731800       0.01234600      -0.00832800       0.02731800       0.01234600       0.00000000
In       9.63055140      12.74768561      19.01769333  T        1      -0.00310200       0.00483600       0.00284800      -0.00310200       0.00483600       0.00284800       0.00000000
Cu       7.41612922       1.55262594      16.52100751  T        1      -0.01190400      -0.01026400       0.00194100      -0.01190400      -0.01026400       0.00194100       0.00000000
Cu       8.10149479       8.69094086      17.29687881  F        0       0.00000000       0.00000000       0.00000000       0.08495900       0.03556600       0.09571500       0.00000000
Cu      11.74589729       1.75672793      15.19278049  F        0       0.00000000       0.00000000       0.00000000       0.18864300       0.14947500       0.20394000       0.00000000
Cu      11.23287900       9.06567928      18.73581555  T        1       0.00373900       0.01187900      -0.00480900       0.00373900       0.01187900      -0.00480900       0.00000000
Se       8.12146625       4.47093183      17.38504391  T        1       0.00382000      -0.00515800      -0.01660900       0.00382000      -0.00515800      -0.01660900       0.00000000
Se       8.10149479      11.29540062      17.29687881  F        0       0.00000000       0.00000000       0.00000000       0.00961300       0.20207600       0.13298200       0.00000000
Se      11.78827045       4.55831855      19.50809793  T        1       0.00114600      -0.01432300       0.01370500       0.00114600      -0.01432300       0.01370500       0.00000000
Se       4.49562813      11.32962788      19.47804418  T        1       0.00416300       0.00204700       0.00445800       0.00416300       0.00204700       0.00445800       0.00000000
Se      12.62353779       1.28103216      17.47798955  T        1       0.00831300      -0.00034800      -0.00863000       0.00831300      -0.00034800      -0.00863000       0.00000000
Se       5.67189217       8.23499489      17.29687881  F        0       0.00000000       0.00000000       0.00000000      -0.07278900      -0.05624100      -0.15181800       0.00000000
Se       9.31629562       1.30078208      15.19278049  F        0       0.00000000       0.00000000       0.00000000      -0.09671900      -0.35351600      -0.19352400       0.00000000
Se       9.10504753       8.34946802      19.52492546  T        1      -0.00252400      -0.00857100      -0.01328700      -0.00252400      -0.00857100      -0.01328700       0.00000000
In      12.96069908       5.63343096      13.08868408  F        0       0.00000000       0.00000000       0.00000000       0.74031800       0.03314400       0.32669400       0.00000000
In       5.67189217      12.56764412      13.08868408  F        0       0.00000000       0.00000000       0.00000000       0.74892900       0.00341500       0.23339200       0.00000000
In       9.31629562       5.63343096      15.19278049  F        0       0.00000000       0.00000000       0.00000000      -0.34651800      -0.54795300      -0.44099100       0.00000000
In       9.31629562      12.56764412      15.19278049  F        0       0.00000000       0.00000000       0.00000000      -0.29905600      -0.58107200      -0.64587500       0.00000000
Cu       8.10149479       1.75672793      13.08868408  F        0       0.00000000       0.00000000       0.00000000       0.05960800       0.30050800       0.05977000       0.00000000
Cu       8.10149479       8.69094086      13.08868408  F        0       0.00000000       0.00000000       0.00000000      -0.66783500       0.51048700       0.91752900       0.00000000
Cu      11.74589729       1.75672793      10.98458672  F        0       0.00000000       0.00000000       0.00000000      -0.70316300      -0.58144200       0.91977100       0.00000000
Cu      11.74589729       8.69094086      15.19278049  F        0       0.00000000       0.00000000       0.00000000       0.16248000       0.01051000      -0.01585100       0.00000000
Se       8.10149479       4.36118746      13.08868408  F        0       0.00000000       0.00000000       0.00000000      -0.16283900       0.34089300      -0.00648800       0.00000000
Se       8.10149479      11.29540062      13.08868408  F        0       0.00000000       0.00000000       0.00000000      -0.10048700       0.06530800      -0.14717500       0.00000000
Se      11.74589729       4.36118746      15.19278049  F        0       0.00000000       0.00000000       0.00000000      -0.11942500       0.16507000       0.01880900       0.00000000
Se       4.45709133      11.29540062      15.19278049  F        0       0.00000000       0.00000000       0.00000000      -0.13826300       0.11430100      -0.04911400       0.00000000
Se      12.96069908       1.30078208      13.08868408  F        0       0.00000000       0.00000000       0.00000000       0.04745700       0.34408600      -0.38015400       0.00000000
Se       5.67189217       8.23499489      13.08868408  F        0       0.00000000       0.00000000       0.00000000       0.22767900      -0.16804400      -0.31285800       0.00000000
Se       9.31629562       1.30078208      10.98458672  F        0       0.00000000       0.00000000       0.00000000       0.31524700       0.08140100      -0.30747900       0.00000000
Se       9.31629562       8.23499489      15.19278049  F        0       0.00000000       0.00000000       0.00000000       0.11326100      -0.03148300      -0.29079400       0.00000000
C        1.02985342       5.00315955      21.48367227  T        2       0.00329300      -0.02284200      -0.00983000       0.00329300      -0.02284200      -0.00983000       0.00000000
C        0.68220821       3.70703592      21.36633671  T        2       0.00900300      -0.00824300       0.01165800       0.00900300      -0.00824300       0.01165800       0.00000000
H        1.85363772       5.20552460      22.17771921  T        2       0.00635200       0.00990800      -0.00938300       0.00635200       0.00990800      -0.00938300       0.00000000
H        0.20651402       5.72545821      21.45209413  T        2      -0.02012900      -0.01482800      -0.00578800      -0.02012900      -0.01482800      -0.00578800       0.00000000
O        0.42843267       2.58178041      21.18823927  T        2       0.02348600       0.03248300      -0.00224400       0.02348600       0.03248300      -0.00224400       0.00000000
69
Lattice="14.57761287689209 -1.0931459169214777e-31 -8.926213192667109e-16 -3.6444032192230225 13.868426322937012 2.1040971279144287 -0.0 3.607486217301753e-15 29.457361221313477" Properties=species:S:1:pos:R:3:move_mask:L:1:tags:I:1:DFT_forces:R:3:forces:R:3 DFT_energy=-237.2494278 energy=-237.2494278 pbc="T T T"
In       5.63236772       5.60026779      17.45034619  T        1      -0.00095500       0.00835900      -0.00807400      -0.00095500       0.00835900      -0.00807400
In      -1.62561316      12.53329550      17.37341028  T        1       0.00400900       0.00185000      -0.00330000       0.00400900       0.00185000      -0.00330000
In       2.26499615       5.74825529      19.29826177  T        1      -0.01468800      -0.00951900       0.01137800      -0.01468800      -0.00951900       0.01137800
In       2.33597262      12.72165939      19.03610386  T        1       0.00657100      -0.00698300      -0.00238900       0.00657100      -0.00698300      -0.00238900
Cu       0.14867278       1.60458846      16.55137218  T        1       0.00035200       0.00558500      -0.00361600       0.00035200       0.00558500      -0.00361600
Cu       0.81268793       8.69094086      17.29687881  F        0       0.00000000       0.00000000       0.00000000       0.00000000       0.00000000       0.00000000
Cu       4.45709133       1.75672793      15.19278049  F        0       0.00000000       0.00000000       0.00000000       0.00000000       0.00000000       0.00000000
Cu       3.93825118       9.04002973      18.74098901  T        1      -0.00204400       0.00937300       0.00395600      -0.00204400       0.00937300       0.00395600
Se       0.82956447       4.42159025      17.37005241  T        1       0.00638100      -0.00022800       0.02674900       0.00638100      -0.00022800       0.02674900
Se       0.81268793      11.29540062      17.29687881  F        0       0.00000000       0.00000000       0.00000000       0.00000000       0.00000000       0.00000000
Se       4.51031599       4.50711280      19.55411082  T        1       0.00837400      -0.01736400      -0.00529100       0.00837400      -0.01736400      -0.00529100
Se      -2.80258070      11.32977356      19.46805169  T        1       0.00202800      -0.00375000       0.00089800       0.00202800      -0.00375000       0.00089800
Se       5.31293189       1.26133815      17.47649840  T        1       0.00616400       0.00380700       0.00989500       0.00616400       0.00380700       0.00989500
Se      -1.61691415       8.23499489      17.29687881  F        0       0.00000000       0.00000000       0.00000000       0.00000000       0.00000000       0.00000000
Se       2.02748895       1.30078208      15.19278049  F        0       0.00000000       0.00000000       0.00000000       0.00000000       0.00000000       0.00000000
Se       1.82457189       8.27377403      19.50040675  T        1      -0.00622700      -0.02336600      -0.00968300      -0.00622700      -0.02336600      -0.00968300
In       5.67189217       5.63343096      13.08868408  F        0       0.00000000       0.00000000       0.00000000       0.00000000       0.00000000       0.00000000
In      -1.61691415      12.56764412      13.08868408  F        0       0.00000000       0.00000000       0.00000000       0.00000000       0.00000000       0.00000000
In       2.02748895       5.63343096      15.19278049  F        0       0.00000000       0.00000000       0.00000000       0.00000000       0.00000000       0.00000000
In       2.02748895      12.56764412      15.19278049  F        0       0.00000000       0.00000000       0.00000000       0.00000000       0.00000000       0.00000000
Cu       0.81268793       1.75672793      13.08868408  F        0       0.00000000       0.00000000       0.00000000       0.00000000       0.00000000       0.00000000
Cu       0.81268793       8.69094086      13.08868408  F        0       0.00000000       0.00000000       0.00000000       0.00000000       0.00000000       0.00000000
Cu       4.45709133       1.75672793      10.98458672  F        0       0.00000000       0.00000000       0.00000000       0.00000000       0.00000000       0.00000000
Cu       4.45709133       8.69094086      15.19278049  F        0       0.00000000       0.00000000       0.00000000       0.00000000       0.00000000       0.00000000
Se       0.81268793       4.36118746      13.08868408  F        0       0.00000000       0.00000000       0.00000000       0.00000000       0.00000000       0.00000000
Se       0.81268793      11.29540062      13.08868408  F        0       0.00000000       0.00000000       0.00000000       0.00000000       0.00000000       0.00000000
Se       4.45709133       4.36118746      15.19278049  F        0       0.00000000       0.00000000       0.00000000       0.00000000       0.00000000       0.00000000
Se      -2.83171535      11.29540062      15.19278049  F        0       0.00000000       0.00000000       0.00000000       0.00000000       0.00000000       0.00000000
Se       5.67189217       1.30078208      13.08868408  F        0       0.00000000       0.00000000       0.00000000       0.00000000       0.00000000       0.00000000
Se      -1.61691415       8.23499489      13.08868408  F        0       0.00000000       0.00000000       0.00000000       0.00000000       0.00000000       0.00000000
Se       2.02748895       1.30078208      10.98458672  F        0       0.00000000       0.00000000       0.00000000       0.00000000       0.00000000       0.00000000
Se       2.02748895       8.23499489      15.19278049  F        0       0.00000000       0.00000000       0.00000000       0.00000000       0.00000000       0.00000000
In      12.96891032       5.59570744      17.40965459  T        1      -0.00249100      -0.01123300      -0.00566000      -0.00249100      -0.01123300      -0.00566000
In       5.65356608      12.52611340      17.38615246  T        1      -0.00048400      -0.00308700       0.00440600      -0.00048400      -0.00308700       0.00440600
In       9.66472036       5.91791370      19.06709948  T        1      -0.00054200       0.00770400       0.00065600      -0.00054200       0.00770400       0.00065600
In       9.62868936      12.74713512      19.01924723  T        1      -0.00021400      -0.00167000       0.00102800      -0.00021400      -0.00167000       0.00102800
Cu       7.40010575       1.51762304      16.50566034  T        1       0.00418500       0.00726200       0.00207500       0.00418500       0.00726200       0.00207500
Cu       8.10149479       8.69094086      17.29687881  F        0       0.00000000       0.00000000       0.00000000       0.00000000       0.00000000       0.00000000
Cu      11.74589729       1.75672793      15.19278049  F        0       0.00000000       0.00000000       0.00000000       0.00000000       0.00000000       0.00000000
Cu      11.23371311       9.06778067      18.73354182  T        1      -0.00294300       0.00139300       0.00011800      -0.00294300       0.00139300       0.00011800
Se       8.11960836       4.47369056      17.38495932  T        1       0.00183100      -0.00140600       0.00373600       0.00183100      -0.00140600       0.00373600
Se       8.10149479      11.29540062      17.29687881  F        0       0.00000000       0.00000000       0.00000000       0.00000000       0.00000000       0.00000000
Se      11.78599477       4.55525693      19.52352596  T        1      -0.00140700      -0.00221100      -0.00190500      -0.00140700      -0.00221100      -0.00190500
Se       4.47777125      11.29396719      19.47601443  T        1       0.00075900       0.01548200      -0.00646100       0.00075900       0.01548200      -0.00646100
Se      12.62206125       1.28115306      17.47859359  T        1      -0.00488700      -0.00272200       0.00420500      -0.00488700      -0.00272200       0.00420500
Se       5.67189217       8.23499489      17.29687881  F        0       0.00000000       0.00000000       0.00000000       0.00000000       0.00000000       0.00000000
Se       9.31629562       1.30078208      15.19278049  F        0       0.00000000       0.00000000       0.00000000       0.00000000       0.00000000       0.00000000
Se       9.10392827       8.34903278      19.52189977  T        1       0.00488600      -0.00454500      -0.00131600       0.00488600      -0.00454500      -0.00131600
In      12.96069908       5.63343096      13.08868408  F        0       0.00000000       0.00000000       0.00000000       0.00000000       0.00000000       0.00000000
In       5.67189217      12.56764412      13.08868408  F        0       0.00000000       0.00000000       0.00000000       0.00000000       0.00000000       0.00000000
In       9.31629562       5.63343096      15.19278049  F        0       0.00000000       0.00000000       0.00000000       0.00000000       0.00000000       0.00000000
In       9.31629562      12.56764412      15.19278049  F        0       0.00000000       0.00000000       0.00000000       0.00000000       0.00000000       0.00000000
Cu       8.10149479       1.75672793      13.08868408  F        0       0.00000000       0.00000000       0.00000000       0.00000000       0.00000000       0.00000000
Cu       8.10149479       8.69094086      13.08868408  F        0       0.00000000       0.00000000       0.00000000       0.00000000       0.00000000       0.00000000
Cu      11.74589729       1.75672793      10.98458672  F        0       0.00000000       0.00000000       0.00000000       0.00000000       0.00000000       0.00000000
Cu      11.74589729       8.69094086      15.19278049  F        0       0.00000000       0.00000000       0.00000000       0.00000000       0.00000000       0.00000000
Se       8.10149479       4.36118746      13.08868408  F        0       0.00000000       0.00000000       0.00000000       0.00000000       0.00000000       0.00000000
Se       8.10149479      11.29540062      13.08868408  F        0       0.00000000       0.00000000       0.00000000       0.00000000       0.00000000       0.00000000
Se      11.74589729       4.36118746      15.19278049  F        0       0.00000000       0.00000000       0.00000000       0.00000000       0.00000000       0.00000000
Se       4.45709133      11.29540062      15.19278049  F        0       0.00000000       0.00000000       0.00000000       0.00000000       0.00000000       0.00000000
Se      12.96069908       1.30078208      13.08868408  F        0       0.00000000       0.00000000       0.00000000       0.00000000       0.00000000       0.00000000
Se       5.67189217       8.23499489      13.08868408  F        0       0.00000000       0.00000000       0.00000000       0.00000000       0.00000000       0.00000000
Se       9.31629562       1.30078208      10.98458672  F        0       0.00000000       0.00000000       0.00000000       0.00000000       0.00000000       0.00000000
Se       9.31629562       8.23499489      15.19278049  F        0       0.00000000       0.00000000       0.00000000       0.00000000       0.00000000       0.00000000
C        1.10697301       4.97510101      21.80072683  T        2       0.00209100       0.02219400      -0.04841800       0.00209100       0.02219400      -0.04841800
C        0.77754729       3.67407039      21.77988956  T        2       0.00830100       0.00207900      -0.04830500       0.00830100       0.00207900      -0.04830500
H        1.99400428       5.23337029      22.38958055  T        2       0.00295800       0.01792200      -0.04471700       0.00295800       0.01792200      -0.04471700
H        0.26807619       5.68033924      21.79731824  T        2       0.02943500       0.00441400      -0.04795400       0.02943500       0.00441400      -0.04795400
O        0.51686959       2.53765892      21.68937182  T        2       0.01420600       0.02763000      -0.04968500       0.01420600       0.02763000      -0.04968500
69
Lattice="14.57761287689209 -1.0931459169214777e-31 -8.926213192667109e-16 -3.6444032192230225 13.868426322937012 2.1040971279144287 -0.0 3.607486217301753e-15 29.457361221313477" Properties=species:S:1:pos:R:3:move_mask:L:1:tags:I:1:DFT_forces:R:3:forces:R:3 DFT_energy=-237.1646007 energy=-237.1646007 pbc="T T T"
In       5.64851027       5.60095809      17.43966421  T        1      -0.00357000      -0.00123200      -0.00230800      -0.00357000      -0.00123200      -0.00230800
In      -1.62720544      12.53232198      17.37519152  T        1       0.00213100       0.00102900      -0.00137800       0.00213100       0.00102900      -0.00137800
In       2.30793597       5.78531254      19.25151257  T        1      -0.00184300      -0.00929300       0.00636600      -0.00184300      -0.00929300       0.00636600
In       2.33542850      12.72234551      19.03596148  T        1       0.01180800      -0.00642000      -0.00241000       0.01180800      -0.00642000      -0.00241000
Cu       0.13950124       1.58008857      16.54371257  T        1      -0.00362100       0.00586300      -0.00236200      -0.00362100       0.00586300      -0.00236200
Cu       0.81268793       8.69094086      17.29687881  F        0       0.00000000       0.00000000       0.00000000       0.00000000       0.00000000       0.00000000
Cu       4.45709133       1.75672793      15.19278049  F        0       0.00000000       0.00000000       0.00000000       0.00000000       0.00000000       0.00000000
Cu       3.93063807       9.03733043      18.73682248  T        1      -0.00043200       0.00282500       0.00239400      -0.00043200       0.00282500       0.00239400
Se       0.84125142       4.43124576      17.38026472  T        1       0.00073300      -0.00452300       0.01784400       0.00073300      -0.00452300       0.01784400
Se       0.81268793      11.29540062      17.29687881  F        0       0.00000000       0.00000000       0.00000000       0.00000000       0.00000000       0.00000000
Se       4.52123949       4.51218439      19.54882172  T        1      -0.00975900      -0.01045500       0.00579900      -0.00975900      -0.01045500       0.00579900
Se      -2.80184731      11.32663498      19.46968714  T        1       0.00193400      -0.00087400      -0.00510500       0.00193400      -0.00087400      -0.00510500
Se       5.31237895       1.26195276      17.47616818  T        1       0.01355700      -0.00072600       0.00878900       0.01355700      -0.00072600       0.00878900
Se      -1.61691415       8.23499489      17.29687881  F        0       0.00000000       0.00000000       0.00000000       0.00000000       0.00000000       0.00000000
Se       2.02748895       1.30078208      15.19278049  F        0       0.00000000       0.00000000       0.00000000       0.00000000       0.00000000       0.00000000
Se       1.81472696       8.28332463      19.50727907  T        1      -0.00428400      -0.01062900      -0.00547500      -0.00428400      -0.01062900      -0.00547500
In       5.67189217       5.63343096      13.08868408  F        0       0.00000000       0.00000000       0.00000000       0.00000000       0.00000000       0.00000000
In      -1.61691415      12.56764412      13.08868408  F        0       0.00000000       0.00000000       0.00000000       0.00000000       0.00000000       0.00000000
In       2.02748895       5.63343096      15.19278049  F        0       0.00000000       0.00000000       0.00000000       0.00000000       0.00000000       0.00000000
In       2.02748895      12.56764412      15.19278049  F        0       0.00000000       0.00000000       0.00000000       0.00000000       0.00000000       0.00000000
Cu       0.81268793       1.75672793      13.08868408  F        0       0.00000000       0.00000000       0.00000000       0.00000000       0.00000000       0.00000000
Cu       0.81268793       8.69094086      13.08868408  F        0       0.00000000       0.00000000       0.00000000       0.00000000       0.00000000       0.00000000
Cu       4.45709133       1.75672793      10.98458672  F        0       0.00000000       0.00000000       0.00000000       0.00000000       0.00000000       0.00000000
Cu       4.45709133       8.69094086      15.19278049  F        0       0.00000000       0.00000000       0.00000000       0.00000000       0.00000000       0.00000000
Se       0.81268793       4.36118746      13.08868408  F        0       0.00000000       0.00000000       0.00000000       0.00000000       0.00000000       0.00000000
Se       0.81268793      11.29540062      13.08868408  F        0       0.00000000       0.00000000       0.00000000       0.00000000       0.00000000       0.00000000
Se       4.45709133       4.36118746      15.19278049  F        0       0.00000000       0.00000000       0.00000000       0.00000000       0.00000000       0.00000000