67
Lattice="13.692615509033203 0.0 8.384309041584593e-16 -5.430752270716539e-16 8.869091987609863 -3.539682149887085 0.0 0.0 38.197410583496094" Properties=species:S:1:pos:R:3:move_mask:L:1:tags:I:1:DFT_forces:R:3:forces:R:3:magmoms:R:1 DFT_energy=-386.52117963 energy=-386.52117963 dipole="_JSON [[0.0, 0.0, 0.0]]" magmom=0.0 free_energy=-386.50482209 pbc="T T T"
Ti       2.28210258       3.36789131      19.44106674  F        0       0.00000000       0.00000000       0.00000000      -0.05299800       0.31836900      -0.06356700       0.00000000
Ti       2.28210258       7.80243731      12.89654922  F        0       0.00000000       0.00000000       0.00000000       0.11077400      -0.11978700      -0.26836800       0.00000000
Ti       8.96503838       1.30545009      22.59889837  T        1      -0.00359000      -0.00437700      -0.00190700      -0.00359000      -0.00437700      -0.00190700       0.00000000
Ti       9.12841034       5.58516407      16.16880798  F        0       0.00000000       0.00000000       0.00000000      -0.05501100       0.06919700       0.08282600       0.00000000
Ti       4.72928476       1.30535078      22.59885102  T        1       0.00434000       0.00115300      -0.00429500       0.00434000       0.00115300      -0.00429500       0.00000000
Ti       4.56420517       5.58516407      16.16880798  F        0       0.00000000       0.00000000       0.00000000       0.05493800       0.06711500       0.07897000       0.00000000
Ti      11.41051292       7.80243731      12.89654922  F        0       0.00000000       0.00000000       0.00000000      -0.11496700      -0.12024500      -0.27162500       0.00000000
Ti      11.41051292       3.36789131      19.44106674  F        0       0.00000000       0.00000000       0.00000000       0.06014200       0.31787100      -0.07224400       0.00000000
Ti       4.56420517       3.28392744      14.60949612  F        0       0.00000000       0.00000000       0.00000000      -0.08403900      -0.49459600      -0.35983600       0.00000000
Ti       4.56420517       7.71847343      17.61433220  F        0       0.00000000       0.00000000       0.00000000       0.09420800       0.27688200       0.55008000       0.00000000
Ti      11.41051292       1.06665444      17.88175583  F        0       0.00000000       0.00000000       0.00000000       0.09114900      -0.18680800      -0.25446000       0.00000000
Ti      11.44644882       5.55966476      20.73688392  T        1       0.01119300       0.00157600       0.00682400       0.01119300       0.00157600       0.00682400       0.00000000
Ti       2.24490377       5.56145360      20.73603061  T        1      -0.00655800       0.00508300       0.00653300      -0.00655800       0.00508300       0.00653300       0.00000000
Ti       2.28210258       1.06665444      17.88175583  F        0       0.00000000       0.00000000       0.00000000      -0.09076200      -0.18857200      -0.25382400       0.00000000
Ti       9.12841034       3.28392744      14.60949612  F        0       0.00000000       0.00000000       0.00000000       0.08349300      -0.49544600      -0.35935400       0.00000000
Ti       9.12841034       7.71847343      17.61433220  F        0       0.00000000       0.00000000       0.00000000      -0.09122300       0.27956100       0.55161900       0.00000000
Ti       5.35654437       3.72513282      20.69277175  T        1      -0.00566000      -0.01925900      -0.00116100      -0.00566000      -0.01925900      -0.00116100       0.00000000
Ti       5.14607763       8.31844807      14.43195248  F        0       0.00000000       0.00000000       0.00000000       0.09862800      -0.10157200      -0.09918000       0.00000000
Ti      11.99238491       1.66662943      14.69937611  F        0       0.00000000       0.00000000       0.00000000      -0.13498400       0.57151400       1.32511200       0.00000000
Ti      11.88490414       6.18557426      17.77267893  T        1       0.00446800       0.00286400       0.01424800       0.00446800       0.00286400       0.01424800       0.00000000
Ti       0.00811836       3.30633901      21.64509257  T        1      -0.00404100       0.00178900      -0.02329300      -0.00404100       0.00178900      -0.02329300       0.00000000
Ti      -0.00000000       7.75310564      15.26628685  F        0       0.00000000       0.00000000       0.00000000       0.00062100      -0.08715600       0.44641900       0.00000000
Ti       6.84630775       1.10128689      15.53371048  F        0       0.00000000       0.00000000       0.00000000       0.00314400      -0.40878800      -0.01389100       0.00000000
Ti       6.84778826       5.45834425      18.51878530  T        1      -0.00141600      -0.00566300       0.00446000      -0.00141600      -0.00566300       0.00446000       0.00000000
Ti       1.70023036       1.66662943      14.69937611  F        0       0.00000000       0.00000000       0.00000000       0.13420700       0.57343600       1.32559100       0.00000000
Ti       1.80998823       6.18540950      17.77355748  T        1      -0.00695500       0.00386000       0.02102200      -0.00695500       0.00386000       0.02102200       0.00000000
Ti       8.54653835       8.31844807      14.43195248  F        0       0.00000000       0.00000000       0.00000000      -0.09749700      -0.10008000      -0.10203900       0.00000000
Ti       8.35233846       3.72843582      20.69979800  T        1      -0.00639800      -0.01982900      -0.00257200      -0.00639800      -0.01982900      -0.00257200       0.00000000
Ti       1.66527200       4.97386742      14.59321880  F        0       0.00000000       0.00000000       0.00000000      -0.00769200       0.00188800       0.30140500       0.00000000
Ti       1.69867932       0.50615819      21.11013419  T        1      -0.02371600      -0.01786300       0.00598300      -0.02371600      -0.01786300       0.00598300       0.00000000
Ti       8.51157951       2.75659466      17.86547852  F        0       0.00000000       0.00000000       0.00000000      -0.31039800      -0.21837200       0.04464300       0.00000000
Ti       8.51157951       7.19114065      11.32096100  F        0       0.00000000       0.00000000       0.00000000      -1.01646200       1.15655700       1.21525800       0.00000000
Ti      13.69124827       7.70045347      19.22880099  T        1       0.02562400       0.00770100       0.01204400       0.02562400       0.00770100       0.01204400       0.00000000
Ti      -0.00000000       3.35590243      16.98101807  F        0       0.00000000       0.00000000       0.00000000       0.00032800       0.04380200      -0.51294800       0.00000000
Ti       6.84630775       5.57317543      13.70875931  F        0       0.00000000       0.00000000       0.00000000       0.00167300       0.36566000      -0.37251500       0.00000000
Ti       6.84630775       1.13862944      20.25327682  F        0       0.00000000       0.00000000       0.00000000       0.00531900      -0.11953800       0.08328100       0.00000000
Ti       5.18103600       2.75659466      17.86547852  F        0       0.00000000       0.00000000       0.00000000       0.31044600      -0.22165200       0.03595200       0.00000000
Ti       5.18103600       7.19114065      11.32096100  F        0       0.00000000       0.00000000       0.00000000       1.02557000       1.15892400       1.21879900       0.00000000
Ti      11.99505499       0.50586368      21.11075001  T        1       0.01854300      -0.01779200       0.00961300       0.01854300      -0.01779200       0.00961300       0.00000000
Ti      12.02734375       4.97386742      14.59321880  F        0       0.00000000       0.00000000       0.00000000       0.00760400       0.00113000       0.30044300       0.00000000
Ga       2.93390691       3.23705997      22.08325566  T        1      -0.00140100      -0.00521100      -0.00130700      -0.00140100      -0.00521100      -0.00130700       0.00000000
Ga       2.64800954       7.50941372      15.62592793  F        0       0.00000000       0.00000000       0.00000000       0.08148500      -0.01221500      -0.09682700       0.00000000
Ga       9.49431705       0.85759509      15.89335155  F        0       0.00000000       0.00000000       0.00000000       0.27207100      -0.39493400      -0.51604100       0.00000000
Ga       9.48323591       5.31242292      18.89198562  T        1      -0.00255700       0.00330700      -0.00947900      -0.00255700       0.00330700      -0.00947900       0.00000000
Ga      -0.00000000       4.93662882      19.42285347  F        0       0.00000000       0.00000000       0.00000000       0.00150400       0.37344100       0.00614500       0.00000000
Ga      -0.00000000       0.50208277      16.41801834  F        0       0.00000000       0.00000000       0.00000000      -0.00094900       0.03908900      -0.40361600       0.00000000
Ga       6.84630775       2.71935558      13.14575863  F        0       0.00000000       0.00000000       0.00000000      -0.00016900       0.12114400       0.80989600       0.00000000
Ga       6.84630775       7.15390158      16.15059471  F        0       0.00000000       0.00000000       0.00000000      -0.00006600       0.04143800      -0.04761400       0.00000000
Ga       4.19829798       0.85759509      15.89335155  F        0       0.00000000       0.00000000       0.00000000      -0.27349700      -0.39112100      -0.51302200       0.00000000
Ga       4.21241419       5.31168686      18.89282511  T        1      -0.00565100       0.00111100      -0.00489600      -0.00565100       0.00111100      -0.00489600       0.00000000
Ga      11.04460621       7.50941372      15.62592793  F        0       0.00000000       0.00000000       0.00000000      -0.08178900      -0.01192500      -0.09764500       0.00000000
Ga      10.77364252       3.22644384      22.08391463  T        1      -0.00849300      -0.00554200      -0.00410200      -0.00849300      -0.00554200      -0.00410200       0.00000000
Sb       4.14510584       5.77699661      13.40795898  F        0       0.00000000       0.00000000       0.00000000      -0.41911900      -0.36099700      -0.85629400       0.00000000
Sb       4.14510584       1.34245062      19.95247650  F        0       0.00000000       0.00000000       0.00000000      -0.18742200      -0.30328900      -0.28647900       0.00000000
Sb      10.99141312       3.55972362      16.68021774  F        0       0.00000000       0.00000000       0.00000000       0.01420100       0.03799000      -0.14719500       0.00000000
Sb      10.99669386       8.23457676      19.89199159  T        1      -0.02168300       0.00719300       0.01482200      -0.02168300       0.00719300       0.01482200       0.00000000
Sb      -0.00000000       6.18419027      12.80702114  F        0       0.00000000       0.00000000       0.00000000       0.00017800      -0.29091300      -0.42883900       0.00000000
Sb      -0.00000000       1.74964452      19.35153770  F        0       0.00000000       0.00000000       0.00000000       0.00126000      -0.26220100      -0.35067100       0.00000000
Sb       6.84630775       3.96691751      16.07927895  F        0       0.00000000       0.00000000       0.00000000      -0.00043500      -0.18133200      -0.40305400       0.00000000
Sb       6.84641889       8.33653478      19.27990997  T        1       0.00555800       0.00514500       0.00073100       0.00555800       0.00514500       0.00073100       0.00000000
Sb       2.70120215       3.55972362      16.68021774  F        0       0.00000000       0.00000000       0.00000000      -0.01351900       0.03922100      -0.14790500       0.00000000
Sb       2.69810877       8.23697880      19.89179042  T        1       0.00252300      -0.00493100       0.01334800       0.00252300      -0.00493100       0.01334800       0.00000000
Sb       9.54751015       1.34245062      19.95247650  F        0       0.00000000       0.00000000       0.00000000       0.19584500      -0.31327100      -0.28683900       0.00000000
Sb       9.54751015       5.77699661      13.40795898  F        0       0.00000000       0.00000000       0.00000000       0.41663500      -0.35697800      -0.86269000       0.00000000
H        0.82526722       2.58288188      24.03749174  T        2      -0.01295400      -0.01185000      -0.00304400      -0.01295400      -0.01185000      -0.00304400       0.00000000
H       12.94897001       2.50314844      24.02628354  T        2       0.00192300      -0.00867000       0.00561700       0.00192300      -0.00867000       0.00561700       0.00000000
O        0.01340406       3.10810195      23.84945967  T        2       0.00447400      -0.03223800       0.01295700       0.00447400      -0.03223800       0.01295700       0.00000000
67
Lattice="13.692615509033203 0.0 8.384309041584593e-16 -5.430752270716539e-16 8.869091987609863 -3.539682149887085 0.0 0.0 38.197410583496094" Properties=species:S:1:pos:R:3:move_mask:L:1:tags:I:1:DFT_forces:R:3:forces:R:3 DFT_energy=-386.48861416 energy=-386.48861416 pbc="T T T"
Ti       2.28210258       3.36789131      19.44106674  F        0       0.00000000       0.00000000       0.00000000       0.00000000       0.00000000       0.00000000
Ti       2.28210258       7.80243731      12.89654922  F        0       0.00000000       0.00000000       0.00000000       0.00000000       0.00000000       0.00000000
Ti       8.96281720       1.30381441      22.59902993  T        1      -0.00125100      -0.00787000       0.00605100      -0.00125100      -0.00787000       0.00605100
Ti       9.12841034       5.58516407      16.16880798  F        0       0.00000000       0.00000000       0.00000000       0.00000000       0.00000000       0.00000000
Ti       4.72677660       1.30271312      22.59933483  T        1       0.00214600      -0.00865900       0.00813400       0.00214600      -0.00865900       0.00813400
Ti       4.56420517       5.58516407      16.16880798  F        0       0.00000000       0.00000000       0.00000000       0.00000000       0.00000000       0.00000000
Ti      11.41051292       7.80243731      12.89654922  F        0       0.00000000       0.00000000       0.00000000       0.00000000       0.00000000       0.00000000
Ti      11.41051292       3.36789131      19.44106674  F        0       0.00000000       0.00000000       0.00000000       0.00000000       0.00000000       0.00000000
Ti       4.56420517       3.28392744      14.60949612  F        0       0.00000000       0.00000000       0.00000000       0.00000000       0.00000000       0.00000000
Ti       4.56420517       7.71847343      17.61433220  F        0       0.00000000       0.00000000       0.00000000       0.00000000       0.00000000       0.00000000
Ti      11.41051292       1.06665444      17.88175583  F        0       0.00000000       0.00000000       0.00000000       0.00000000       0.00000000       0.00000000
Ti      11.45139783       5.55700231      20.74796925  T        1      -0.00961100       0.00028900      -0.01182000      -0.00961100       0.00028900      -0.01182000
Ti       2.23948351       5.55600232      20.74978781  T        1       0.00951100      -0.00480000      -0.00927500       0.00951100      -0.00480000      -0.00927500
Ti       2.28210258       1.06665444      17.88175583  F        0       0.00000000       0.00000000       0.00000000       0.00000000       0.00000000       0.00000000
Ti       9.12841034       3.28392744      14.60949612  F        0       0.00000000       0.00000000       0.00000000       0.00000000       0.00000000       0.00000000
Ti       9.12841034       7.71847343      17.61433220  F        0       0.00000000       0.00000000       0.00000000       0.00000000       0.00000000       0.00000000
Ti       5.34632779       3.72558958      20.69894554  T        1      -0.00239500      -0.00244000      -0.00464100      -0.00239500      -0.00244000      -0.00464100
Ti       5.14607763       8.31844807      14.43195248  F        0       0.00000000       0.00000000       0.00000000       0.00000000       0.00000000       0.00000000
Ti      11.99238491       1.66662943      14.69937611  F        0       0.00000000       0.00000000       0.00000000       0.00000000       0.00000000       0.00000000
Ti      11.88572697       6.19003584      17.78081873  T        1      -0.00473700       0.00036400      -0.00924100      -0.00473700       0.00036400      -0.00924100
Ti       0.00177860       3.31464954      21.65730342  T        1      -0.00179700       0.00515600       0.01079700      -0.00179700       0.00515600       0.01079700
Ti      -0.00000000       7.75310564      15.26628685  F        0       0.00000000       0.00000000       0.00000000       0.00000000       0.00000000       0.00000000
Ti       6.84630775       1.10128689      15.53371048  F        0       0.00000000       0.00000000       0.00000000       0.00000000       0.00000000       0.00000000
Ti       6.84563961       5.45321769      18.52500525  T        1      -0.00250400      -0.00029200      -0.00927900      -0.00250400      -0.00029200      -0.00927900
Ti       1.70023036       1.66662943      14.69937611  F        0       0.00000000       0.00000000       0.00000000       0.00000000       0.00000000       0.00000000
Ti       1.80472443       6.18908015      17.77900038  T        1       0.00860800      -0.00037400      -0.01105600       0.00860800      -0.00037400      -0.01105600
Ti       8.54653835       8.31844807      14.43195248  F        0       0.00000000       0.00000000       0.00000000       0.00000000       0.00000000       0.00000000
Ti       8.34588789       3.72528987      20.69950901  T        1       0.00280000      -0.00059100      -0.00647000       0.00280000      -0.00059100      -0.00647000
Ti       1.66527200       4.97386742      14.59321880  F        0       0.00000000       0.00000000       0.00000000       0.00000000       0.00000000       0.00000000
Ti       1.69283510       0.50073130      21.11676655  T        1       0.00051900       0.00105800       0.00500300       0.00051900       0.00105800       0.00500300
Ti       8.51157951       2.75659466      17.86547852  F        0       0.00000000       0.00000000       0.00000000       0.00000000       0.00000000       0.00000000
Ti       8.51157951       7.19114065      11.32096100  F        0       0.00000000       0.00000000       0.00000000       0.00000000       0.00000000       0.00000000
Ti      13.69266430       7.70650184      19.25137662  T        1      -0.00930700       0.00159800       0.01160800      -0.00930700       0.00159800       0.01160800
Ti      -0.00000000       3.35590243      16.98101807  F        0       0.00000000       0.00000000       0.00000000       0.00000000       0.00000000       0.00000000
Ti       6.84630775       5.57317543      13.70875931  F        0       0.00000000       0.00000000       0.00000000       0.00000000       0.00000000       0.00000000
Ti       6.84630775       1.13862944      20.25327682  F        0       0.00000000       0.00000000       0.00000000       0.00000000       0.00000000       0.00000000
Ti       5.18103600       2.75659466      17.86547852  F        0       0.00000000       0.00000000       0.00000000       0.00000000       0.00000000       0.00000000
Ti       5.18103600       7.19114065      11.32096100  F        0       0.00000000       0.00000000       0.00000000       0.00000000       0.00000000       0.00000000
Ti      11.99920862       0.50017315      21.11799457  T        1       0.00449400       0.00676000      -0.00320500       0.00449400       0.00676000      -0.00320500
Ti      12.02734375       4.97386742      14.59321880  F        0       0.00000000       0.00000000       0.00000000       0.00000000       0.00000000       0.00000000
Ga       2.91748614       3.22393998      22.08798040  T        1      -0.00783500       0.00254000       0.00530400      -0.00783500       0.00254000       0.00530400
Ga       2.64800954       7.50941372      15.62592793  F        0       0.00000000       0.00000000       0.00000000       0.00000000       0.00000000       0.00000000
Ga       9.49431705       0.85759509      15.89335155  F        0       0.00000000       0.00000000       0.00000000       0.00000000       0.00000000       0.00000000
Ga       9.48459881       5.31477638      18.89602789  T        1      -0.00459500      -0.00967000       0.00007700      -0.00459500      -0.00967000       0.00007700
Ga      -0.00000000       4.93662882      19.42285347  F        0       0.00000000       0.00000000       0.00000000       0.00000000       0.00000000       0.00000000
Ga      -0.00000000       0.50208277      16.41801834  F        0       0.00000000       0.00000000       0.00000000       0.00000000       0.00000000       0.00000000
Ga       6.84630775       2.71935558      13.14575863  F        0       0.00000000       0.00000000       0.00000000       0.00000000       0.00000000       0.00000000
Ga       6.84630775       7.15390158      16.15059471  F        0       0.00000000       0.00000000       0.00000000       0.00000000       0.00000000       0.00000000
Ga       4.19829798       0.85759509      15.89335155  F        0       0.00000000       0.00000000       0.00000000       0.00000000       0.00000000       0.00000000
Ga       4.20547861       5.31501932      18.89711847  T        1       0.01036200      -0.00553400      -0.00549500       0.01036200      -0.00553400      -0.00549500
Ga      11.04460621       7.50941372      15.62592793  F        0       0.00000000       0.00000000       0.00000000       0.00000000       0.00000000       0.00000000
Ga      10.77466006       3.22454817      22.08869372  T        1       0.00775200      -0.00391500      -0.00246000       0.00775200      -0.00391500      -0.00246000
Sb       4.14510584       5.77699661      13.40795898  F        0       0.00000000       0.00000000       0.00000000       0.00000000       0.00000000       0.00000000
Sb       4.14510584       1.34245062      19.95247650  F        0       0.00000000       0.00000000       0.00000000       0.00000000       0.00000000       0.00000000
Sb      10.99141312       3.55972362      16.68021774  F        0       0.00000000       0.00000000       0.00000000       0.00000000       0.00000000       0.00000000
Sb      10.98830365       8.23208031      19.89994341  T        1       0.00536800       0.00366000      -0.00733600       0.00536800       0.00366000      -0.00733600
Sb      -0.00000000       6.18419027      12.80702114  F        0       0.00000000       0.00000000       0.00000000       0.00000000       0.00000000       0.00000000
Sb      -0.00000000       1.74964452      19.35153770  F        0       0.00000000       0.00000000       0.00000000       0.00000000       0.00000000       0.00000000
Sb       6.84630775       3.96691751      16.07927895  F        0       0.00000000       0.00000000       0.00000000       0.00000000       0.00000000       0.00000000
Sb       6.84482277       8.33315754      19.28256297  T        1       0.00557500      -0.00527700       0.00301800       0.00557500      -0.00527700       0.00301800
Sb       2.70120215       3.55972362      16.68021774  F        0       0.00000000       0.00000000       0.00000000       0.00000000       0.00000000       0.00000000
Sb       2.70278683       8.22879227      19.89834956  T        1       0.00321200       0.01089700      -0.00764200       0.00321200       0.01089700      -0.00764200
Sb       9.54751015       1.34245062      19.95247650  F        0       0.00000000       0.00000000       0.00000000       0.00000000       0.00000000       0.00000000
Sb       9.54751015       5.77699661      13.40795898  F        0       0.00000000       0.00000000       0.00000000       0.00000000       0.00000000       0.00000000
H        0.80324298       3.05376678      24.27140717  T        2       0.02475900      -0.02189500      -0.06723200       0.02475900      -0.02189500      -0.06723200
H       12.92133488       3.01929176      24.28060341  T        2      -0.03573700      -0.02464100      -0.06463100      -0.03573700      -0.02464100      -0.06463100
O        0.00397376       3.47035889      23.88593667  T        2       0.00919800       0.00176400       0.00775500       0.00919800       0.00176400       0.00775500
67
Lattice="13.692615509033203 0.0 8.384309041584593e-16 -5.430752270716539e-16 8.869091987609863 -3.539682149887085 0.0 0.0 38.197410583496094" Properties=species:S:1:pos:R:3:move_mask:L:1:tags:I:1:DFT_forces:R:3:forces:R:3 DFT_energy=-386.34967432 energy=-386.34967432 pbc="T T T"
Ti       2.28210258       3.36789131      19.44106674  F        0       0.00000000       0.00000000       0.00000000       0.00000000       0.00000000       0.00000000
Ti       2.28210258       7.80243731      12.89654922  F        0       0.00000000       0.00000000       0.00000000       0.00000000       0.00000000       0.00000000
Ti       8.96908491       1.30155869      22.59869388  T        1       0.00064700      -0.00220200       0.00134300       0.00064700      -0.00220200       0.00134300
Ti       9.12841034       5.58516407      16.16880798  F        0       0.00000000       0.00000000       0.00000000       0.00000000       0.00000000       0.00000000
Ti       4.72283995       1.30212184      22.59892084  T        1      -0.00042700      -0.00509400      -0.00150200      -0.00042700      -0.00509400      -0.00150200
Ti       4.56420517       5.58516407      16.16880798  F        0       0.00000000       0.00000000       0.00000000       0.00000000       0.00000000       0.00000000
Ti      11.41051292       7.80243731      12.89654922  F        0       0.00000000       0.00000000       0.00000000       0.00000000       0.00000000       0.00000000
Ti      11.41051292       3.36789131      19.44106674  F        0       0.00000000       0.00000000       0.00000000       0.00000000       0.00000000       0.00000000
Ti       4.56420517       3.28392744      14.60949612  F        0       0.00000000       0.00000000       0.00000000       0.00000000       0.00000000       0.00000000
Ti       4.56420517       7.71847343      17.61433220  F        0       0.00000000       0.00000000       0.00000000       0.00000000       0.00000000       0.00000000
Ti      11.41051292       1.06665444      17.88175583  F        0       0.00000000       0.00000000       0.00000000       0.00000000       0.00000000       0.00000000
Ti      11.45168542       5.55130353      20.75608751  T        1      -0.00678400       0.01076900      -0.00172500      -0.00678400       0.01076900      -0.00172500
Ti       2.23976406       5.55134504      20.75718373  T        1       0.00615000       0.00915300      -0.00080600       0.00615000       0.00915300      -0.00080600
Ti       2.28210258       1.06665444      17.88175583  F        0       0.00000000       0.00000000       0.00000000       0.00000000       0.00000000       0.00000000
Ti       9.12841034       3.28392744      14.60949612  F        0       0.00000000       0.00000000       0.00000000       0.00000000       0.00000000       0.00000000
Ti       9.12841034       7.71847343      17.61433220  F        0       0.00000000       0.00000000       0.00000000       0.00000000       0.00000000       0.00000000
Ti       5.33817533       3.72409012      20.70490725  T        1      -0.00134200       0.00160500      -0.00222800      -0.00134200       0.00160500      -0.00222800
Ti       5.14607763       8.31844807      14.43195248  F        0       0.00000000       0.00000000       0.00000000       0.00000000       0.00000000       0.00000000
Ti      11.99238491       1.66662943      14.69937611  F        0       0.00000000       0.00000000       0.00000000       0.00000000       0.00000000       0.00000000
Ti      11.88720845       6.18756532      17.78034315  T        1       0.00019700      -0.00543200      -0.00620000       0.00019700      -0.00543200      -0.00620000
Ti       0.00229985       3.30076885      21.72963223  T        1       0.00099300      -0.02740600       0.00809700       0.00099300      -0.02740600       0.00809700
Ti      -0.00000000       7.75310564      15.26628685  F        0       0.00000000       0.00000000       0.00000000       0.00000000       0.00000000       0.00000000
Ti       6.84630775       1.10128689      15.53371048  F        0       0.00000000       0.00000000       0.00000000       0.00000000       0.00000000       0.00000000
Ti       6.84583376       5.45165539      18.52668589  T        1      -0.00056900       0.00189500      -0.00269100      -0.00056900       0.00189500      -0.00269100
Ti       1.70023036       1.66662943      14.69937611  F        0       0.00000000       0.00000000       0.00000000       0.00000000       0.00000000       0.00000000
Ti       1.80439777       6.18834744      17.78033955  T        1       0.00272300      -0.00897300      -0.01089500       0.00272300      -0.00897300      -0.01089500
Ti       8.54653835       8.31844807      14.43195248  F        0       0.00000000       0.00000000       0.00000000       0.00000000       0.00000000       0.00000000
Ti       8.35423414       3.72374850      20.70552253  T        1       0.00227900       0.00307000      -0.00420100       0.00227900       0.00307000      -0.00420100
Ti       1.66527200       4.97386742      14.59321880  F        0       0.00000000       0.00000000       0.00000000       0.00000000       0.00000000       0.00000000
Ti       1.69173643       0.49979233      21.11964458  T        1       0.00050400       0.00417700       0.00017200       0.00050400       0.00417700       0.00017200
Ti       8.51157951       2.75659466      17.86547852  F        0       0.00000000       0.00000000       0.00000000       0.00000000       0.00000000       0.00000000
Ti       8.51157951       7.19114065      11.32096100  F        0       0.00000000       0.00000000       0.00000000       0.00000000       0.00000000       0.00000000