53
Lattice="11.58487606048584 0.0 7.093690763204728e-16 -5.358410892460693e-16 8.750948905944824 5.358410892460693e-16 0.0 0.0 30.893003463745117" Properties=species:S:1:pos:R:3:move_mask:L:1:tags:I:1:DFT_forces:R:3:forces:R:3:magmoms:R:1 DFT_energy=-245.07056588 energy=-245.07056588 dipole="_JSON [[0.0, 0.0, 0.0]]" magmom=0.0 free_energy=-245.0783678 pbc="T T T"
Nb      -0.00000000       2.18851924      12.55028248  F        0       0.00000000       0.00000000       0.00000000       0.02351200       0.02097400       0.99389200       0.00000000
Nb       1.93081272       6.56242943      14.48109531  F        0       0.00000000       0.00000000       0.00000000       0.00503300       0.18056000       0.00870200       0.00000000
Al       1.93081272       2.17575955      14.48109531  F        0       0.00000000       0.00000000       0.00000000       0.00335300      -0.16925800      -0.09553800       0.00000000
Al      -0.00000000       6.57518911      12.55028248  F        0       0.00000000       0.00000000       0.00000000      -0.00513100       0.07302200      -0.13336500       0.00000000
Al       1.93081272       0.00000000      12.55028248  F        0       0.00000000       0.00000000       0.00000000       0.00051700       0.25367000      -0.15648600       0.00000000
Ga      -0.00000000       4.37547445      14.48109531  F        0       0.00000000       0.00000000       0.00000000      -0.13266700       0.00354500      -0.15180900       0.00000000
Ga       0.00000000       0.00000000      14.48109531  F        0       0.00000000       0.00000000       0.00000000       0.11293100       0.01654200      -0.07423600       0.00000000
Ga       1.93081272       4.37547445      12.55028248  F        0       0.00000000       0.00000000       0.00000000      -0.00075700      -0.38109600      -0.31162300       0.00000000
Nb       0.01106920       2.20120869      16.45409455  T        1      -0.01817900      -0.03317300      -0.03201900      -0.01817900      -0.03317300      -0.03201900       0.00000000
Nb       1.92657089       6.53534042      18.32479678  T        1      -0.00632600      -0.01900300       0.03487800      -0.00632600      -0.01900300       0.03487800       0.00000000
Al       1.93773781       2.75712671      18.37080434  T        1      -0.00312500       0.02488300       0.02432000      -0.00312500       0.02488300       0.02432000       0.00000000
Al       0.00554745       6.61174483      16.39365571  T        1      -0.00245000      -0.00440800       0.00953000      -0.00245000      -0.00440800       0.00953000       0.00000000
Al       1.93133999       0.07213656      16.56886289  T        1       0.00283100      -0.01496400       0.01940900       0.00283100      -0.01496400       0.01940900       0.00000000
Ga      11.45235489       4.49110280      18.45038476  T        1       0.00428000       0.01874000       0.02115700       0.00428000       0.01874000       0.02115700       0.00000000
Ga      11.50455005       8.63771305      18.36803619  T        1      -0.00761100      -0.00316200      -0.00170700      -0.00761100      -0.00316200      -0.00170700       0.00000000
Ga       1.92934392       4.44949445      16.37509108  T        1       0.00587400      -0.01307100       0.02078900       0.00587400      -0.01307100       0.02078900       0.00000000
Nb       3.86162543       2.18851924      12.55028248  F        0       0.00000000       0.00000000       0.00000000      -0.02192000       0.02111200       0.98937700       0.00000000
Nb       5.79243803       6.56242943      14.48109531  F        0       0.00000000       0.00000000       0.00000000      -0.08030800       0.03656600      -0.01184600       0.00000000
Al       5.79243803       2.17575955      14.48109531  F        0       0.00000000       0.00000000       0.00000000      -0.03281000      -0.03226000      -0.13817100       0.00000000
Al       3.86162543       6.57518911      12.55028248  F        0       0.00000000       0.00000000       0.00000000       0.00549700       0.07615500      -0.13158700       0.00000000
Al       5.79243803       0.00000000      12.55028248  F        0       0.00000000       0.00000000       0.00000000       0.01867200       0.25173400      -0.18382000       0.00000000
Ga       3.86162543       4.37547445      14.48109531  F        0       0.00000000       0.00000000       0.00000000       0.13962700       0.00242800      -0.14352100       0.00000000
Ga       3.86162543       0.00000000      14.48109531  F        0       0.00000000       0.00000000       0.00000000      -0.11909400       0.00612000      -0.07651800       0.00000000
Ga       5.79243803       4.37547445      12.55028248  F        0       0.00000000       0.00000000       0.00000000       0.00895600      -0.37354600      -0.27094400       0.00000000
Nb       3.85526139       2.19479167      16.45083926  T        1      -0.00659800       0.01327800      -0.02314700      -0.00659800       0.01327800      -0.02314700       0.00000000
Nb       5.83003545       6.56022478      18.20904447  T        1       0.00072500      -0.01292900       0.01090200       0.00072500      -0.01292900       0.01090200       0.00000000
Al       5.77897094       2.01858355      18.39580560  T        1       0.02813100       0.02370600       0.00453400       0.02813100       0.02370600       0.00453400       0.00000000
Al       3.85434722       6.60688657      16.39668143  T        1       0.01740000      -0.00330800      -0.00297500       0.01740000      -0.00330800      -0.00297500       0.00000000
Al       5.80694865       8.75752932      16.42847981  T        1       0.00997800      -0.00509000       0.00056600       0.00997800      -0.00509000       0.00056600       0.00000000
Ga       3.99783457       4.49385223      18.45019385  T        1      -0.01014900       0.01263100       0.00851900      -0.01014900       0.01263100       0.00851900       0.00000000
Ga       3.93521859       8.62975859      18.37577698  T        1      -0.00126900      -0.02471200      -0.01593000      -0.00126900      -0.02471200      -0.01593000       0.00000000
Ga       5.80396564       4.31139783      16.47314851  T        1      -0.01248800       0.04220700       0.00731100      -0.01248800       0.04220700       0.00731100       0.00000000
Nb       7.72325087       2.18851924      12.55028248  F        0       0.00000000       0.00000000       0.00000000       0.00009600       0.01575100       0.98476400       0.00000000
Nb       9.65406418       6.56242943      14.48109531  F        0       0.00000000       0.00000000       0.00000000       0.07788700       0.05281900      -0.02871600       0.00000000
Al       9.65406418       2.17575955      14.48109531  F        0       0.00000000       0.00000000       0.00000000       0.04483500      -0.03515400      -0.12531100       0.00000000
Al       7.72325087       6.57518911      12.55028248  F        0       0.00000000       0.00000000       0.00000000       0.00081600       0.11014300      -0.13770500       0.00000000
Al       9.65406418       0.00000000      12.55028248  F        0       0.00000000       0.00000000       0.00000000      -0.01823700       0.25105500      -0.18083700       0.00000000
Ga       7.72325087       4.37547445      14.48109531  F        0       0.00000000       0.00000000       0.00000000      -0.00422100      -0.05405200      -0.16115200       0.00000000
Ga       7.72325087       0.00000000      14.48109531  F        0       0.00000000       0.00000000       0.00000000       0.01012100       0.00982800      -0.21182200       0.00000000
Ga       9.65406418       4.37547445      12.55028248  F        0       0.00000000       0.00000000       0.00000000      -0.00724900      -0.37354000      -0.27356600       0.00000000
Nb       7.72333572       2.18011327      16.44364121  T        1      -0.00390900      -0.01034600      -0.01546100      -0.00390900      -0.01034600      -0.01546100       0.00000000
Nb       9.61695210       6.56125096      18.20599331  T        1       0.01564500      -0.00945700       0.02796000       0.01564500      -0.00945700       0.02796000       0.00000000
Al       9.66593125       2.08364599      18.39847404  T        1      -0.02213500       0.00378900      -0.01285400      -0.02213500       0.00378900      -0.01285400       0.00000000
Al       7.72422530       6.55492185      16.35979638  T        1      -0.01542000       0.01552300      -0.02509200      -0.01542000       0.01552300      -0.02509200       0.00000000
Al       9.63953204       8.76639983      16.43594711  T        1      -0.01436200       0.00770800      -0.01315800      -0.01436200       0.00770800      -0.01315800       0.00000000
Ga       7.72156125       4.42987301      18.43739160  T        1       0.01057900       0.01561600       0.00196500       0.01057900       0.01561600       0.00196500       0.00000000
Ga       7.73089866       8.65264777      18.39539477  T        1      -0.01756700       0.01136300       0.00946300      -0.01756700       0.01136300       0.00946300       0.00000000
Ga       9.64479368       4.32263264      16.46768866  T        1       0.00711600       0.02144200      -0.00855100       0.00711600       0.02144200      -0.00855100       0.00000000
N        1.89942835       6.66876618      20.68359953  T        2       0.00180100       0.01497700      -0.01205900       0.00180100       0.01497700      -0.01205900       0.00000000
H        1.03397992       7.12838988      21.00694900  T        2       0.00595200      -0.02124000      -0.01413500       0.00595200      -0.02124000      -0.01413500       0.00000000
H        2.68878817       7.24833617      21.00897223  T        2       0.00824800      -0.03273700       0.02859600       0.00824800      -0.03273700       0.02859600       0.00000000
O        1.98040121       5.43882516      21.46607405  T        2       0.00630200       0.02850100      -0.03154300       0.00630200       0.02850100      -0.03154300       0.00000000
H        2.05693009       4.75161791      20.75753702  T        2      -0.01273300      -0.00988200       0.00056900      -0.01273300      -0.00988200       0.00056900       0.00000000
53
Lattice="11.58487606048584 0.0 7.093690763204728e-16 -5.358410892460693e-16 8.750948905944824 5.358410892460693e-16 0.0 0.0 30.893003463745117" Properties=species:S:1:pos:R:3:move_mask:L:1:tags:I:1:DFT_forces:R:3:forces:R:3 DFT_energy=-244.93026437 energy=-244.93026437 pbc="T T T"
Nb      -0.00000000       2.18851924      12.55028248  F        0       0.00000000       0.00000000       0.00000000       0.00000000       0.00000000       0.00000000
Nb       1.93081272       6.56242943      14.48109531  F        0       0.00000000       0.00000000       0.00000000       0.00000000       0.00000000       0.00000000
Al       1.93081272       2.17575955      14.48109531  F        0       0.00000000       0.00000000       0.00000000       0.00000000       0.00000000       0.00000000
Al      -0.00000000       6.57518911      12.55028248  F        0       0.00000000       0.00000000       0.00000000       0.00000000       0.00000000       0.00000000
Al       1.93081272       0.00000000      12.55028248  F        0       0.00000000       0.00000000       0.00000000       0.00000000       0.00000000       0.00000000
Ga      -0.00000000       4.37547445      14.48109531  F        0       0.00000000       0.00000000       0.00000000       0.00000000       0.00000000       0.00000000
Ga       0.00000000       0.00000000      14.48109531  F        0       0.00000000       0.00000000       0.00000000       0.00000000       0.00000000       0.00000000
Ga       1.93081272       4.37547445      12.55028248  F        0       0.00000000       0.00000000       0.00000000       0.00000000       0.00000000       0.00000000
Nb       0.01261058       2.19938782      16.45995560  T        1      -0.00458600      -0.00396500      -0.01455900      -0.00458600      -0.00396500      -0.01455900
Nb       1.93018847       6.52358290      18.43210297  T        1      -0.00424500       0.00606700      -0.00005000      -0.00424500       0.00606700      -0.00005000
Al       1.93177173       2.74941366      18.39627056  T        1      -0.00026500       0.00962300      -0.00341300      -0.00026500       0.00962300      -0.00341300
Al       0.02434082       6.61740780      16.42517302  T        1      -0.01465300      -0.00770100      -0.00073100      -0.01465300      -0.00770100      -0.00073100
Al       1.93164686       0.07401025      16.60599642  T        1      -0.00296000      -0.01107400      -0.00510100      -0.00296000      -0.01107400      -0.00510100
Ga      11.46139908       4.49865165      18.48981640  T        1      -0.00746400      -0.00759000      -0.00297500      -0.00746400      -0.00759000      -0.00297500
Ga      11.51134034       8.63015834      18.41765979  T        1       0.00558200       0.00331000       0.00527700       0.00558200       0.00331000       0.00527700
Ga       1.93053179       4.45023209      16.40308198  T        1      -0.00203800      -0.01146500      -0.00000500      -0.00203800      -0.01146500      -0.00000500
Nb       3.86162543       2.18851924      12.55028248  F        0       0.00000000       0.00000000       0.00000000       0.00000000       0.00000000       0.00000000
Nb       5.79243803       6.56242943      14.48109531  F        0       0.00000000       0.00000000       0.00000000       0.00000000       0.00000000       0.00000000
Al       5.79243803       2.17575955      14.48109531  F        0       0.00000000       0.00000000       0.00000000       0.00000000       0.00000000       0.00000000
Al       3.86162543       6.57518911      12.55028248  F        0       0.00000000       0.00000000       0.00000000       0.00000000       0.00000000       0.00000000
Al       5.79243803       0.00000000      12.55028248  F        0       0.00000000       0.00000000       0.00000000       0.00000000       0.00000000       0.00000000
Ga       3.86162543       4.37547445      14.48109531  F        0       0.00000000       0.00000000       0.00000000       0.00000000       0.00000000       0.00000000
Ga       3.86162543       0.00000000      14.48109531  F        0       0.00000000       0.00000000       0.00000000       0.00000000       0.00000000       0.00000000
Ga       5.79243803       4.37547445      12.55028248  F        0       0.00000000       0.00000000       0.00000000       0.00000000       0.00000000       0.00000000
Nb       3.84984371       2.19799746      16.45951149  T        1       0.00454200      -0.00042200      -0.01644100       0.00454200      -0.00042200      -0.01644100
Nb       5.83304560       6.55842747      18.22122282  T        1      -0.00408100      -0.00117500      -0.00159600      -0.00408100      -0.00117500      -0.00159600
Al       5.77893537       2.05937298      18.40223541  T        1       0.01466500       0.01504100      -0.01712400       0.01466500       0.01504100      -0.01712400
Al       3.83708316       6.61075247      16.42543961  T        1       0.01918200      -0.00411600      -0.00555400       0.01918200      -0.00411600      -0.00555400
Al       5.79723396       0.01220684      16.44199308  T        1      -0.00608400      -0.00606200       0.01052200      -0.00608400      -0.00606200       0.01052200
Ga       3.98568847       4.49503628      18.49112892  T        1       0.00593700      -0.00612100      -0.00413000       0.00593700      -0.00612100      -0.00413000
Ga       3.93436979       8.62445637      18.41576093  T        1      -0.00876900       0.00027900      -0.00099100      -0.00876900       0.00027900      -0.00099100
Ga       5.79195535       4.32652163      16.48394346  T        1       0.00177600       0.00098700      -0.01104500       0.00177600       0.00098700      -0.01104500
Nb       7.72325087       2.18851924      12.55028248  F        0       0.00000000       0.00000000       0.00000000       0.00000000       0.00000000       0.00000000
Nb       9.65406418       6.56242943      14.48109531  F        0       0.00000000       0.00000000       0.00000000       0.00000000       0.00000000       0.00000000
Al       9.65406418       2.17575955      14.48109531  F        0       0.00000000       0.00000000       0.00000000       0.00000000       0.00000000       0.00000000
Al       7.72325087       6.57518911      12.55028248  F        0       0.00000000       0.00000000       0.00000000       0.00000000       0.00000000       0.00000000
Al       9.65406418       0.00000000      12.55028248  F        0       0.00000000       0.00000000       0.00000000       0.00000000       0.00000000       0.00000000
Ga       7.72325087       4.37547445      14.48109531  F        0       0.00000000       0.00000000       0.00000000       0.00000000       0.00000000       0.00000000
Ga       7.72325087       0.00000000      14.48109531  F        0       0.00000000       0.00000000       0.00000000       0.00000000       0.00000000       0.00000000
Ga       9.65406418       4.37547445      12.55028248  F        0       0.00000000       0.00000000       0.00000000       0.00000000       0.00000000       0.00000000
Nb       7.72289043       2.18329590      16.44722291  T        1      -0.00201200      -0.00337100      -0.01563100      -0.00201200      -0.00337100      -0.01563100
Nb       9.61302522       6.56023741      18.22061448  T        1       0.00835500       0.00301400      -0.00125800       0.00835500       0.00301400      -0.00125800
Al       9.66577357       2.09418762      18.40144366  T        1      -0.01239300       0.00307900      -0.01744200      -0.01239300       0.00307900      -0.01744200
Al       7.72314884       6.56989424      16.35854807  T        1       0.00133300      -0.00140700       0.01509800       0.00133300      -0.00140700       0.01509800
Al       9.64968621       0.01786270      16.44892870  T        1       0.00129200      -0.00668200       0.00201100       0.00129200      -0.00668200       0.00201100
Ga       7.72446806       4.43412739      18.43436677  T        1       0.00030600       0.00378100       0.00035500       0.00030600       0.00378100       0.00035500
Ga       7.72297961       8.65763088      18.39367352  T        1       0.00730200       0.00231300       0.00341600       0.00730200       0.00231300       0.00341600
Ga       9.65752565       4.33181468      16.47757966  T        1      -0.00439900      -0.00275800      -0.00371900      -0.00439900      -0.00275800      -0.00371900
N        1.90276409       6.65137144      20.95534422  T        2       0.00119200       0.00390200      -0.11771400       0.00119200       0.00390200      -0.11771400
H        1.03984633       7.13404133      21.25685735  T        2       0.04422800       0.02021900      -0.13654900       0.04422800       0.02021900      -0.13654900
H        2.69009401       7.23553239      21.28381284  T        2      -0.04351500       0.01140100      -0.13864900      -0.04351500       0.01140100      -0.13864900
O        1.95639220       5.49255651      21.85110054  T        2       0.00026900       0.00858000      -0.15075900       0.00026900       0.00858000      -0.15075900
H        2.03826410       4.73390488      21.23266130  T        2      -0.00623500       0.00065600      -0.16768000      -0.00623500       0.00065600      -0.16768000
53
Lattice="11.58487606048584 0.0 7.093690763204728e-16 -5.358410892460693e-16 8.750948905944824 5.358410892460693e-16 0.0 0.0 30.893003463745117" Properties=species:S:1:pos:R:3:move_mask:L:1:tags:I:1:DFT_forces:R:3:forces:R:3 DFT_energy=-244.63820746 energy=-244.63820746 pbc="T T T"
Nb      -0.00000000       2.18851924      12.55028248  F        0       0.00000000       0.00000000       0.00000000       0.00000000       0.00000000       0.00000000
Nb       1.93081272       6.56242943      14.48109531  F        0       0.00000000       0.00000000       0.00000000       0.00000000       0.00000000       0.00000000
Al       1.93081272       2.17575955      14.48109531  F        0       0.00000000       0.00000000       0.00000000       0.00000000       0.00000000       0.00000000
Al      -0.00000000       6.57518911      12.55028248  F        0       0.00000000       0.00000000       0.00000000       0.00000000       0.00000000       0.00000000
Al       1.93081272       0.00000000      12.55028248  F        0       0.00000000       0.00000000       0.00000000       0.00000000       0.00000000       0.00000000
Ga      -0.00000000       4.37547445      14.48109531  F        0       0.00000000       0.00000000       0.00000000       0.00000000       0.00000000       0.00000000
Ga       0.00000000       0.00000000      14.48109531  F        0       0.00000000       0.00000000       0.00000000       0.00000000       0.00000000       0.00000000
Ga       1.93081272       4.37547445      12.55028248  F        0       0.00000000       0.00000000       0.00000000       0.00000000       0.00000000       0.00000000
Nb       0.01251063       2.20000388      16.45752672  T        1      -0.00344200      -0.00270100      -0.00502200      -0.00344200      -0.00270100      -0.00502200
Nb       1.93025595       6.53219078      18.41773261  T        1      -0.00323300      -0.00129100       0.03636600      -0.00323300      -0.00129100       0.03636600
Al       1.93221828       2.75513415      18.39348712  T        1       0.00158500       0.00659400       0.00556000       0.00158500       0.00659400       0.00556000
Al       0.02144787       6.61681644      16.42446107  T        1       0.00042700      -0.00871000       0.01273200       0.00042700      -0.00871000       0.01273200
Al       1.93032735       0.07565885      16.60363555  T        1       0.00145800      -0.01271400       0.00456500       0.00145800      -0.01271400       0.00456500
Ga      11.46370234       4.49939132      18.49524769  T        1       0.00363200       0.00370000       0.00100500       0.00363200       0.00370000       0.00100500
Ga      11.51517929       8.62919728      18.41909938  T        1       0.00703600      -0.00084300       0.01084500       0.00703600      -0.00084300       0.01084500
Ga       1.92996079       4.44856081      16.40081139  T        1       0.00323800      -0.00311100      -0.00298500       0.00323800      -0.00311100      -0.00298500
Nb       3.86162543       2.18851924      12.55028248  F        0       0.00000000       0.00000000       0.00000000       0.00000000       0.00000000       0.00000000
Nb       5.79243803       6.56242943      14.48109531  F        0       0.00000000       0.00000000       0.00000000       0.00000000       0.00000000       0.00000000
Al       5.79243803       2.17575955      14.48109531  F        0       0.00000000       0.00000000       0.00000000       0.00000000       0.00000000       0.00000000
Al       3.86162543       6.57518911      12.55028248  F        0       0.00000000       0.00000000       0.00000000       0.00000000       0.00000000       0.00000000
Al       5.79243803       0.00000000      12.55028248  F        0       0.00000000       0.00000000       0.00000000       0.00000000       0.00000000       0.00000000
Ga       3.86162543       4.37547445      14.48109531  F        0       0.00000000       0.00000000       0.00000000       0.00000000       0.00000000       0.00000000
Ga       3.86162543       0.00000000      14.48109531  F        0       0.00000000       0.00000000       0.00000000       0.00000000       0.00000000       0.00000000
Ga       5.79243803       4.37547445      12.55028248  F        0       0.00000000       0.00000000       0.00000000       0.00000000       0.00000000       0.00000000
Nb       3.85050371       2.19774640      16.45732214  T        1       0.00025100       0.00463100      -0.00814100       0.00025100       0.00463100      -0.00814100
Nb       5.83118578       6.55814904      18.22182087  T        1      -0.00172100      -0.00614300       0.00369300      -0.00172100      -0.00614300       0.00369300
Al       5.77797414       2.04930075      18.40122126  T        1       0.01168500       0.01562300      -0.01150700       0.01168500       0.01562300      -0.01150700
Al       3.84010945       6.61010870      16.42328397  T        1       0.00145600      -0.00697100       0.01702200       0.00145600      -0.00697100       0.01702200
Al       5.79710057       0.01099564      16.44173576  T        1      -0.00377700      -0.00684100       0.00915200      -0.00377700      -0.00684100       0.00915200
Ga       3.98208528       4.49895996      18.49277709  T        1      -0.00455600       0.00280600       0.00488000      -0.00455600       0.00280600       0.00488000
Ga       3.92883111       8.62218611      18.41521004  T        1      -0.00436400      -0.00181200       0.01030800      -0.00436400      -0.00181200       0.01030800
Ga       5.79178309       4.32477333      16.48891535  T        1       0.00291900       0.00044700      -0.01186000       0.00291900       0.00044700      -0.01186000
Nb       7.72325087       2.18851924      12.55028248  F        0       0.00000000       0.00000000       0.00000000       0.00000000       0.00000000       0.00000000
Nb       9.65406418       6.56242943      14.48109531  F        0       0.00000000       0.00000000       0.00000000       0.00000000       0.00000000       0.00000000
Al       9.65406418       2.17575955      14.48109531  F        0       0.00000000       0.00000000       0.00000000       0.00000000       0.00000000       0.00000000
Al       7.72325087       6.57518911      12.55028248  F        0       0.00000000       0.00000000       0.00000000       0.00000000       0.00000000       0.00000000
Al       9.65406418       0.00000000      12.55028248  F        0       0.00000000       0.00000000       0.00000000       0.00000000       0.00000000       0.00000000
Ga       7.72325087       4.37547445      14.48109531  F        0       0.00000000       0.00000000       0.00000000       0.00000000       0.00000000       0.00000000
Ga       7.72325087       0.00000000      14.48109531  F        0       0.00000000       0.00000000       0.00000000       0.00000000       0.00000000       0.00000000
Ga       9.65406418       4.37547445      12.55028248  F        0       0.00000000       0.00000000       0.00000000       0.00000000       0.00000000       0.00000000
Nb       7.72285957       2.18295717      16.44784557  T        1      -0.00143800      -0.00347200      -0.01409700      -0.00143800      -0.00347200      -0.01409700
Nb       9.61611694       6.56007914      18.22228705  T        1       0.00228600      -0.00210000       0.00557600       0.00228600      -0.00210000       0.00557600
Al       9.66737794       2.09535791      18.40045285  T        1      -0.01258000       0.00267300      -0.01552400      -0.01258000       0.00267300      -0.01552400
Al       7.72401760       6.56770166      16.36086580  T        1      -0.00438200      -0.00097800       0.01118700      -0.00438200      -0.00097800       0.01118700
Al       9.64916982       0.01798359      16.45033674  T        1       0.00459000      -0.00523700       0.00371600       0.00459000      -0.00523700       0.00371600
Ga       7.72622296       4.43495638      18.43579815  T        1      -0.00027800       0.00419200       0.00440000      -0.00027800       0.00419200       0.00440000
Ga       7.72328755       8.65592413      18.39409685  T        1       0.00743300       0.00813400       0.00659300       0.00743300       0.00813400       0.00659300
Ga       9.65819832       4.33150028      16.47885818  T        1      -0.00735200       0.00136200      -0.00141600      -0.00735200       0.00136200      -0.00141600
N        1.90228104       6.64614444      21.27362282  T        2      -0.00128500       0.01300600      -0.17738500      -0.00128500       0.01300600      -0.17738500
H        1.04183271       7.13476333      21.57581645  T        2       0.02623800       0.01204600      -0.18798100       0.02623800       0.01204600      -0.18798100
H        2.68276145       7.23642576      21.61106240  T        2      -0.02819100       0.00516700      -0.19404200      -0.02819100       0.00516700      -0.19404200
O        1.94976505       5.50514513      22.19302730  T        2      -0.00310800       0.02546600      -0.17497800      -0.00310800       0.02546600      -0.17497800
H        2.04396571       4.73731457      21.59462772  T        2      -0.00235400      -0.02036200      -0.17571700      -0.00235400      -0.02036200      -0.17571700
53
Lattice="11.58487606048584 0.0 7.093690763204728e-16 -5.358410892460693e-16 8.750948905944824 5.358410892460693e-16 0.0 0.0 30.893003463745117" Properties=species:S:1:pos:R:3:move_mask:L:1:tags:I:1:DFT_forces:R:3:forces:R:3 DFT_energy=-244.40038762 energy=-244.40038762 pbc="T T T"
Nb      -0.00000000       2.18851924      12.55028248  F        0       0.00000000       0.00000000       0.00000000       0.00000000       0.00000000       0.00000000
Nb       1.93081272       6.56242943      14.48109531  F        0       0.00000000       0.00000000       0.00000000       0.00000000       0.00000000       0.00000000
Al       1.93081272       2.17575955      14.48109531  F        0       0.00000000       0.00000000       0.00000000       0.00000000       0.00000000       0.00000000
Al      -0.00000000       6.57518911      12.55028248  F        0       0.00000000       0.00000000       0.00000000       0.00000000       0.00000000       0.00000000
Al       1.93081272       0.00000000      12.55028248  F        0       0.00000000       0.00000000       0.00000000       0.00000000       0.00000000       0.00000000
Ga      -0.00000000       4.37547445      14.48109531  F        0       0.00000000       0.00000000       0.00000000       0.00000000       0.00000000       0.00000000