85
Lattice="9.2616548538208 0.0 5.671128045048692e-16 -8.422879745629002e-16 13.755606651306152 -1.9453365802764893 0.0 0.0 33.07072067260742" Properties=species:S:1:pos:R:3:move_mask:L:1:tags:I:1:DFT_forces:R:3:forces:R:3:magmoms:R:1 DFT_energy=-711.54537086 energy=-711.54537086 dipole="_JSON [[0.0, 0.0, 0.0]]" magmom=0.0 free_energy=-711.53035272 pbc="T T T"
Hf       2.31541371       4.01205206      12.38530922  F        0       0.00000000       0.00000000       0.00000000       0.00292800       0.17096900      -1.12396000       0.00000000
Hf       2.31541371      10.43133545      13.68220043  F        0       0.00000000       0.00000000       0.00000000       0.00032400      -0.28155800      -0.83671700       0.00000000
Hf       2.31541371       3.09501147      16.92442894  F        0       0.00000000       0.00000000       0.00000000      -0.00147600       0.06595100       0.11034500       0.00000000
Hf       2.32467476       9.50808468      18.24985681  T        1       0.00088900       0.02242400       0.00180200       0.00088900       0.02242400       0.00180200       0.00000000
Hf       2.32052908       2.06301645      21.24586123  T        1       0.00179600       0.00354700       0.00785100       0.00179600       0.00354700       0.00785100       0.00000000
Hf       4.63082743       7.68021393      10.76419544  F        0       0.00000000       0.00000000       0.00000000       0.00006600      -0.76493000       0.20143100       0.00000000
Hf       4.63082743       0.34389016      14.00642300  F        0       0.00000000       0.00000000       0.00000000       0.00031600      -0.04188000      -1.62284900       0.00000000
Hf       4.63082743       6.76317358      15.30331421  F        0       0.00000000       0.00000000       0.00000000      -0.00010400      -0.02798300      -0.27289800       0.00000000
Hf       4.63082743      13.18245697      16.60020638  F        0       0.00000000       0.00000000       0.00000000       0.00111200      -0.03210900       0.54210500       0.00000000
Hf       4.63095605       5.87725245      19.83941485  T        1       0.00341900      -0.01109100      -0.00342300       0.00341900      -0.01109100      -0.00342300       0.00000000
Ir       0.00000000       4.69983244      17.24865150  F        0       0.00000000       0.00000000       0.00000000       0.00034300       0.26598400       0.00480200       0.00000000
Ir       4.63138599      11.03461667      18.44143122  T        1      -0.00437200       0.00161100       0.00978900      -0.00437200       0.00161100       0.00978900       0.00000000
Ir       4.63082743      12.95319653       9.46730518  F        0       0.00000000       0.00000000       0.00000000      -0.00019900       1.20849000       2.24932100       0.00000000
Ir       4.63082743       5.61687279      12.70953274  F        0       0.00000000       0.00000000       0.00000000      -0.00014200       0.00709000      -0.00372400       0.00000000
Ir       4.63082743      12.03615570      14.00642300  F        0       0.00000000       0.00000000       0.00000000      -0.00015200      -0.17258800      -0.05917000       0.00000000
Ir       2.31541371       5.15835238      14.97909164  F        0       0.00000000       0.00000000       0.00000000      -0.00256100      -0.14741300      -0.10367700       0.00000000
Ir       2.31541371      11.57763577      16.27598190  F        0       0.00000000       0.00000000       0.00000000       0.02261200       0.33661300      -0.06231600       0.00000000
Ir       2.31594165       4.18746039      19.44544533  T        1       0.00216800      -0.00402500       0.00655500       0.00216800      -0.00402500       0.00655500       0.00000000
Ir       2.31541371       6.07539320      10.43997288  F        0       0.00000000       0.00000000       0.00000000      -0.00205300       1.14483100       1.84266300       0.00000000
Ir       2.31541371      12.49467659      11.73686409  F        0       0.00000000       0.00000000       0.00000000      -0.00267600       0.00826100       0.41048200       0.00000000
Ir       2.31541371       8.36799431      15.62753677  F        0       0.00000000       0.00000000       0.00000000      -0.00134800       0.01408000       0.10304000       0.00000000
Ir       2.31541371       1.03167057      18.86976433  F        0       0.00000000       0.00000000       0.00000000       0.00507200      -0.33082200      -0.06934000       0.00000000
Ir       2.31589671       7.45327110      19.94234757  T        1       0.00121700      -0.00881900       0.00467400       0.00121700      -0.00881900       0.00467400       0.00000000
Ir       2.31541371       9.28503513      11.08841896  F        0       0.00000000       0.00000000       0.00000000      -0.00144200      -0.31052900       1.38080700       0.00000000
Ir       2.31541371       1.94871104      14.33064651  F        0       0.00000000       0.00000000       0.00000000      -0.00129000      -0.10201400       0.11308100       0.00000000
Ir       4.63082743       8.82651424      13.35797787  F        0       0.00000000       0.00000000       0.00000000      -0.00020700      -0.09866100      -0.00372800       0.00000000
Ir       4.63082743       1.49019074      16.60020638  F        0       0.00000000       0.00000000       0.00000000      -0.00033300      -0.00343900       0.14072200       0.00000000
Ir       4.63082743       7.90947390      17.89709663  F        0       0.00000000       0.00000000       0.00000000       0.00074300      -0.43268000      -0.16188900       0.00000000
Ir       4.63028593       0.63819274      20.92505201  T        1       0.00286500      -0.00122100       0.01449500       0.00286500      -0.00122100       0.01449500       0.00000000
Ir       4.63082743       2.40723109      12.06108665  F        0       0.00000000       0.00000000       0.00000000      -0.00013500       0.27624800       1.58544500       0.00000000
Sc       4.63282293       9.01692065      20.48160445  T        1      -0.00016500       0.00706100       0.01095500      -0.00016500       0.00706100       0.01095500       0.00000000
Sc       4.63082743      10.88985538      11.41264153  F        0       0.00000000       0.00000000       0.00000000       0.00030500       0.12689100      -1.39779300       0.00000000
Sc       4.63082743       3.55353189      14.65486908  F        0       0.00000000       0.00000000       0.00000000      -0.00008200      -0.27922100      -0.74215600       0.00000000
Sc      -0.00000000       9.97281456      15.95176029  F        0       0.00000000       0.00000000       0.00000000       0.00170300       0.01370800       0.01621900       0.00000000
Sc       4.63075169       2.68356213      19.23177056  T        1       0.00393100       0.00732000       0.00780900       0.00393100       0.00732000       0.00780900       0.00000000
Sc       2.31541371       7.22169352      13.03375530  F        0       0.00000000       0.00000000       0.00000000       0.00261300       0.01682600      -1.29855000       0.00000000
Sc       2.31541371      13.64097691      14.33064651  F        0       0.00000000       0.00000000       0.00000000       0.00086800      -0.12283600      -0.37277200       0.00000000
Sc       2.31541371       6.30465317      17.57287407  F        0       0.00000000       0.00000000       0.00000000       0.00997700       0.09171900       0.12117900       0.00000000
Sc       2.29767981      12.66695680      19.03569624  T        1       0.00071400      -0.01114800      -0.00547700       0.00071400      -0.01114800      -0.00547700       0.00000000
Sc       2.31541371       0.80241042      11.73686409  F        0       0.00000000       0.00000000       0.00000000       0.00399600      -0.60284500      -0.77346000       0.00000000
Hf       6.94624090       4.01205206      12.38530922  F        0       0.00000000       0.00000000       0.00000000      -0.00334900       0.17095000      -1.12385000       0.00000000
Hf       6.94624090      10.43133545      13.68220043  F        0       0.00000000       0.00000000       0.00000000      -0.00080400      -0.28132400      -0.83824700       0.00000000
Hf       6.94624090       3.09501147      16.92442894  F        0       0.00000000       0.00000000       0.00000000       0.00176400       0.06664600       0.11494100       0.00000000
Hf       6.93675189       9.50893328      18.24799699  T        1       0.00990200       0.00796300       0.01933200       0.00990200       0.00796300       0.01933200       0.00000000
Hf       6.94039890       2.06281540      21.24690458  T        1       0.00223200       0.00247600      -0.00512900       0.00223200       0.00247600      -0.00512900       0.00000000
Hf       0.00000000       7.68021393      10.76419544  F        0       0.00000000       0.00000000       0.00000000      -0.00045800      -0.75998300       0.19859000       0.00000000
Hf       0.00000000       0.34389016      14.00642300  F        0       0.00000000       0.00000000       0.00000000      -0.00073300      -0.03943400      -1.61585300       0.00000000
Hf       0.00000000       6.76317358      15.30331421  F        0       0.00000000       0.00000000       0.00000000       0.00025400      -0.05036600      -0.32304800       0.00000000
Hf      -0.00000000      13.18245697      16.60020638  F        0       0.00000000       0.00000000       0.00000000      -0.00036700      -0.02310400       0.52871200       0.00000000
Hf       9.26282190       5.86885788      19.83902772  T        1      -0.00591300      -0.01132300      -0.00154900      -0.00591300      -0.01132300      -0.00154900       0.00000000
Ir       4.63082743       4.69983244      17.24865150  F        0       0.00000000       0.00000000       0.00000000      -0.00028700       0.25817400       0.01558100       0.00000000
Ir       9.26171888      11.01898555      18.42210107  T        1      -0.00234800      -0.00262300       0.00776800      -0.00234800      -0.00262300       0.00776800       0.00000000
Ir      -0.00000000      12.95319653       9.46730518  F        0       0.00000000       0.00000000       0.00000000       0.00012100       1.21099900       2.25523400       0.00000000
Ir       0.00000000       5.61687279      12.70953274  F        0       0.00000000       0.00000000       0.00000000      -0.00033100       0.00621800       0.00307100       0.00000000
Ir      -0.00000000      12.03615570      14.00642300  F        0       0.00000000       0.00000000       0.00000000      -0.00042200      -0.16903700      -0.04821900       0.00000000
Ir       6.94624090       5.15835238      14.97909164  F        0       0.00000000       0.00000000       0.00000000       0.00198700      -0.14733700      -0.10330200       0.00000000
Ir       6.94624090      11.57763577      16.27598190  F        0       0.00000000       0.00000000       0.00000000      -0.02258800       0.33898100      -0.06527700       0.00000000
Ir       6.94637254       4.18817255      19.44589533  T        1      -0.00339200      -0.01034800       0.00450700      -0.00339200      -0.01034800       0.00450700       0.00000000
Ir       6.94624090       6.07539320      10.43997288  F        0       0.00000000       0.00000000       0.00000000       0.00179900       1.14445500       1.84321200       0.00000000
Ir       6.94624090      12.49467659      11.73686409  F        0       0.00000000       0.00000000       0.00000000       0.00235900       0.00788200       0.41045500       0.00000000
Ir       6.94624090       8.36799431      15.62753677  F        0       0.00000000       0.00000000       0.00000000       0.00092800       0.01412400       0.10075700       0.00000000
Ir       6.94624090       1.03167057      18.86976433  F        0       0.00000000       0.00000000       0.00000000      -0.00602500      -0.32808700      -0.06436600       0.00000000
Ir       6.94791479       7.45308707      19.94293395  T        1      -0.00171000      -0.00368700      -0.00380700      -0.00171000      -0.00368700      -0.00380700       0.00000000
Ir       6.94624090       9.28503513      11.08841896  F        0       0.00000000       0.00000000       0.00000000       0.00071800      -0.31061800       1.38102000       0.00000000
Ir       6.94624090       1.94871104      14.33064651  F        0       0.00000000       0.00000000       0.00000000       0.00077400      -0.10203300       0.11348000       0.00000000
Ir       0.00000000       8.82651424      13.35797787  F        0       0.00000000       0.00000000       0.00000000       0.00002100      -0.10548100      -0.01894100       0.00000000
Ir       0.00000000       1.49019074      16.60020638  F        0       0.00000000       0.00000000       0.00000000      -0.00015500      -0.00692600       0.14290800       0.00000000
Ir       0.00000000       7.90947390      17.89709663  F        0       0.00000000       0.00000000       0.00000000       0.00090600      -0.41060800      -0.06091500       0.00000000
Ir       9.26123526       0.65334786      20.92396113  T        1       0.00042800      -0.00018600       0.00923000       0.00042800      -0.00018600       0.00923000       0.00000000
Ir       0.00000000       2.40723109      12.06108665  F        0       0.00000000       0.00000000       0.00000000      -0.00025400       0.27808500       1.58374200       0.00000000
Sc       9.26317321       8.99506311      20.40927608  T        1      -0.00283200       0.00205900       0.00676000      -0.00283200       0.00205900       0.00676000       0.00000000
Sc      -0.00000000      10.88985538      11.41264153  F        0       0.00000000       0.00000000       0.00000000      -0.00079400       0.12143200      -1.39670500       0.00000000
Sc       0.00000000       3.55353189      14.65486908  F        0       0.00000000       0.00000000       0.00000000      -0.00046400      -0.28040900      -0.73808000       0.00000000
Sc       4.63082743       9.97281456      15.95176029  F        0       0.00000000       0.00000000       0.00000000      -0.00267500       0.02137700       0.01043500       0.00000000
Sc       9.26205282       2.68384203      19.23353935  T        1      -0.00802200       0.00142800       0.00564200      -0.00802200       0.00142800       0.00564200       0.00000000
Sc       6.94624090       7.22169352      13.03375530  F        0       0.00000000       0.00000000       0.00000000      -0.00306000       0.01684000      -1.29901800       0.00000000
Sc       6.94624090      13.64097691      14.33064651  F        0       0.00000000       0.00000000       0.00000000      -0.00132300      -0.12204900      -0.37288800       0.00000000
Sc       6.94624090       6.30465317      17.57287407  F        0       0.00000000       0.00000000       0.00000000      -0.00864700       0.09170400       0.12472200       0.00000000
Sc       6.96498773      12.66629129      19.03617770  T        1       0.00307800      -0.00406500      -0.00202200       0.00307800      -0.00406500      -0.00202200       0.00000000
Sc       6.94624090       0.80241042      11.73686409  F        0       0.00000000       0.00000000       0.00000000      -0.00451200      -0.60301500      -0.77287100       0.00000000
N        4.73460111      10.43319054      22.41038628  T        2       0.00423100      -0.01662100      -0.00272600       0.00423100      -0.01662100      -0.00272600       0.00000000
H        5.59350378      10.28017324      22.96501949  T        2       0.00354000      -0.00308500       0.01389600       0.00354000      -0.00308500       0.01389600       0.00000000
H        3.95089081      10.32130182      23.07579846  T        2      -0.00431700       0.03715900      -0.00421700      -0.00431700       0.03715900      -0.00421700       0.00000000
O        4.75377201      11.85363196      22.08618187  T        2       0.00922000      -0.01236100      -0.00405400       0.00922000      -0.01236100      -0.00405400       0.00000000
H        4.69231819      11.87025120      21.08112562  T        2      -0.00972100       0.00334400      -0.00058700      -0.00972100       0.00334400      -0.00058700       0.00000000
85
Lattice="9.2616548538208 0.0 5.671128045048692e-16 -8.422879745629002e-16 13.755606651306152 -1.9453365802764893 0.0 0.0 33.07072067260742" Properties=species:S:1:pos:R:3:move_mask:L:1:tags:I:1:DFT_forces:R:3:forces:R:3 DFT_energy=-711.47804173 energy=-711.47804173 pbc="T T T"
Hf       2.31541371       4.01205206      12.38530922  F        0       0.00000000       0.00000000       0.00000000       0.00000000       0.00000000       0.00000000
Hf       2.31541371      10.43133545      13.68220043  F        0       0.00000000       0.00000000       0.00000000       0.00000000       0.00000000       0.00000000
Hf       2.31541371       3.09501147      16.92442894  F        0       0.00000000       0.00000000       0.00000000       0.00000000       0.00000000       0.00000000
Hf       2.32602984       9.50886825      18.25225591  T        1      -0.00265800      -0.00117000      -0.00315300      -0.00265800      -0.00117000      -0.00315300
Hf       2.31822417       2.06073220      21.24826267  T        1       0.00700400       0.00090300       0.00110300       0.00700400       0.00090300       0.00110300
Hf       4.63082743       7.68021393      10.76419544  F        0       0.00000000       0.00000000       0.00000000       0.00000000       0.00000000       0.00000000
Hf       4.63082743       0.34389016      14.00642300  F        0       0.00000000       0.00000000       0.00000000       0.00000000       0.00000000       0.00000000
Hf       4.63082743       6.76317358      15.30331421  F        0       0.00000000       0.00000000       0.00000000       0.00000000       0.00000000       0.00000000
Hf       4.63082743      13.18245697      16.60020638  F        0       0.00000000       0.00000000       0.00000000       0.00000000       0.00000000       0.00000000
Hf       4.63118898       5.88701114      19.83902430  T        1      -0.00111000      -0.00766500       0.00483900      -0.00111000      -0.00766500       0.00483900
Ir       0.00000000       4.69983244      17.24865150  F        0       0.00000000       0.00000000       0.00000000       0.00000000       0.00000000       0.00000000
Ir       4.63132028      11.02538390      18.44501685  T        1      -0.00420900       0.01170900      -0.00232800      -0.00420900       0.01170900      -0.00232800
Ir       4.63082743      12.95319653       9.46730518  F        0       0.00000000       0.00000000       0.00000000       0.00000000       0.00000000       0.00000000
Ir       4.63082743       5.61687279      12.70953274  F        0       0.00000000       0.00000000       0.00000000       0.00000000       0.00000000       0.00000000
Ir       4.63082743      12.03615570      14.00642300  F        0       0.00000000       0.00000000       0.00000000       0.00000000       0.00000000       0.00000000
Ir       2.31541371       5.15835238      14.97909164  F        0       0.00000000       0.00000000       0.00000000       0.00000000       0.00000000       0.00000000
Ir       2.31541371      11.57763577      16.27598190  F        0       0.00000000       0.00000000       0.00000000       0.00000000       0.00000000       0.00000000
Ir       2.31613771       4.18627787      19.44695003  T        1      -0.00307700      -0.00082900       0.00439200      -0.00307700      -0.00082900       0.00439200
Ir       2.31541371       6.07539320      10.43997288  F        0       0.00000000       0.00000000       0.00000000       0.00000000       0.00000000       0.00000000
Ir       2.31541371      12.49467659      11.73686409  F        0       0.00000000       0.00000000       0.00000000       0.00000000       0.00000000       0.00000000
Ir       2.31541371       8.36799431      15.62753677  F        0       0.00000000       0.00000000       0.00000000       0.00000000       0.00000000       0.00000000
Ir       2.31541371       1.03167057      18.86976433  F        0       0.00000000       0.00000000       0.00000000       0.00000000       0.00000000       0.00000000
Ir       2.31798219       7.45711554      19.94669353  T        1      -0.00357300      -0.00102400      -0.00587200      -0.00357300      -0.00102400      -0.00587200
Ir       2.31541371       9.28503513      11.08841896  F        0       0.00000000       0.00000000       0.00000000       0.00000000       0.00000000       0.00000000
Ir       2.31541371       1.94871104      14.33064651  F        0       0.00000000       0.00000000       0.00000000       0.00000000       0.00000000       0.00000000
Ir       4.63082743       8.82651424      13.35797787  F        0       0.00000000       0.00000000       0.00000000       0.00000000       0.00000000       0.00000000
Ir       4.63082743       1.49019074      16.60020638  F        0       0.00000000       0.00000000       0.00000000       0.00000000       0.00000000       0.00000000
Ir       4.63082743       7.90947390      17.89709663  F        0       0.00000000       0.00000000       0.00000000       0.00000000       0.00000000       0.00000000
Ir       4.63093702       0.63524503      20.93545684  T        1      -0.00105500       0.00861100      -0.00624900      -0.00105500       0.00861100      -0.00624900
Ir       4.63082743       2.40723109      12.06108665  F        0       0.00000000       0.00000000       0.00000000       0.00000000       0.00000000       0.00000000
Sc       4.63074233       9.04021835      20.49968788  T        1       0.00022700      -0.00388400      -0.00494100       0.00022700      -0.00388400      -0.00494100
Sc       4.63082743      10.88985538      11.41264153  F        0       0.00000000       0.00000000       0.00000000       0.00000000       0.00000000       0.00000000
Sc       4.63082743       3.55353189      14.65486908  F        0       0.00000000       0.00000000       0.00000000       0.00000000       0.00000000       0.00000000
Sc      -0.00000000       9.97281456      15.95176029  F        0       0.00000000       0.00000000       0.00000000       0.00000000       0.00000000       0.00000000
Sc       4.63092356       2.68406592      19.23695775  T        1       0.00020400       0.00974700       0.00360800       0.00020400       0.00974700       0.00360800
Sc       2.31541371       7.22169352      13.03375530  F        0       0.00000000       0.00000000       0.00000000       0.00000000       0.00000000       0.00000000
Sc       2.31541371      13.64097691      14.33064651  F        0       0.00000000       0.00000000       0.00000000       0.00000000       0.00000000       0.00000000
Sc       2.31541371       6.30465317      17.57287407  F        0       0.00000000       0.00000000       0.00000000       0.00000000       0.00000000       0.00000000
Sc       2.30677792      12.66256201      19.03657434  T        1      -0.00611700       0.00436200      -0.00230800      -0.00611700       0.00436200      -0.00230800
Sc       2.31541371       0.80241042      11.73686409  F        0       0.00000000       0.00000000       0.00000000       0.00000000       0.00000000       0.00000000
Hf       6.94624090       4.01205206      12.38530922  F        0       0.00000000       0.00000000       0.00000000       0.00000000       0.00000000       0.00000000
Hf       6.94624090      10.43133545      13.68220043  F        0       0.00000000       0.00000000       0.00000000       0.00000000       0.00000000       0.00000000
Hf       6.94624090       3.09501147      16.92442894  F        0       0.00000000       0.00000000       0.00000000       0.00000000       0.00000000       0.00000000
Hf       6.93540675       9.50817965      18.25182172  T        1       0.00546200       0.00022700      -0.00113800       0.00546200       0.00022700      -0.00113800
Hf       6.94357925       2.05981567      21.24840771  T        1      -0.00485800       0.00403100       0.00136400      -0.00485800       0.00403100       0.00136400
Hf       0.00000000       7.68021393      10.76419544  F        0       0.00000000       0.00000000       0.00000000       0.00000000       0.00000000       0.00000000
Hf       0.00000000       0.34389016      14.00642300  F        0       0.00000000       0.00000000       0.00000000       0.00000000       0.00000000       0.00000000
Hf       0.00000000       6.76317358      15.30331421  F        0       0.00000000       0.00000000       0.00000000       0.00000000       0.00000000       0.00000000
Hf      -0.00000000      13.18245697      16.60020638  F        0       0.00000000       0.00000000       0.00000000       0.00000000       0.00000000       0.00000000
Hf       0.00054475       5.87085083      19.83923598  T        1      -0.00108000      -0.00643500      -0.00081200      -0.00108000      -0.00643500      -0.00081200
Ir       4.63082743       4.69983244      17.24865150  F        0       0.00000000       0.00000000       0.00000000       0.00000000       0.00000000       0.00000000
Ir       9.26151650      11.01863896      18.42376986  T        1       0.00197300       0.00283200      -0.00186000       0.00197300       0.00283200      -0.00186000
Ir      -0.00000000      12.95319653       9.46730518  F        0       0.00000000       0.00000000       0.00000000       0.00000000       0.00000000       0.00000000
Ir       0.00000000       5.61687279      12.70953274  F        0       0.00000000       0.00000000       0.00000000       0.00000000       0.00000000       0.00000000
Ir      -0.00000000      12.03615570      14.00642300  F        0       0.00000000       0.00000000       0.00000000       0.00000000       0.00000000       0.00000000
Ir       6.94624090       5.15835238      14.97909164  F        0       0.00000000       0.00000000       0.00000000       0.00000000       0.00000000       0.00000000
Ir       6.94624090      11.57763577      16.27598190  F        0       0.00000000       0.00000000       0.00000000       0.00000000       0.00000000       0.00000000
Ir       6.94597436       4.18596240      19.44719088  T        1       0.00189600       0.00293500       0.00132700       0.00189600       0.00293500       0.00132700
Ir       6.94624090       6.07539320      10.43997288  F        0       0.00000000       0.00000000       0.00000000       0.00000000       0.00000000       0.00000000
Ir       6.94624090      12.49467659      11.73686409  F        0       0.00000000       0.00000000       0.00000000       0.00000000       0.00000000       0.00000000
Ir       6.94624090       8.36799431      15.62753677  F        0       0.00000000       0.00000000       0.00000000       0.00000000       0.00000000       0.00000000
Ir       6.94624090       1.03167057      18.86976433  F        0       0.00000000       0.00000000       0.00000000       0.00000000       0.00000000       0.00000000
Ir       6.94552251       7.45649126      19.94697112  T        1       0.00098600      -0.00350500      -0.01082800       0.00098600      -0.00350500      -0.01082800
Ir       6.94624090       9.28503513      11.08841896  F        0       0.00000000       0.00000000       0.00000000       0.00000000       0.00000000       0.00000000
Ir       6.94624090       1.94871104      14.33064651  F        0       0.00000000       0.00000000       0.00000000       0.00000000       0.00000000       0.00000000
Ir       0.00000000       8.82651424      13.35797787  F        0       0.00000000       0.00000000       0.00000000       0.00000000       0.00000000       0.00000000
Ir       0.00000000       1.49019074      16.60020638  F        0       0.00000000       0.00000000       0.00000000       0.00000000       0.00000000       0.00000000
Ir       0.00000000       7.90947390      17.89709663  F        0       0.00000000       0.00000000       0.00000000       0.00000000       0.00000000       0.00000000
Ir       9.26221734       0.64926140      20.92565506  T        1      -0.00215900      -0.00255600       0.00219100      -0.00215900      -0.00255600       0.00219100
Ir       0.00000000       2.40723109      12.06108665  F        0       0.00000000       0.00000000       0.00000000       0.00000000       0.00000000       0.00000000
Sc      -0.00027900       8.99947547      20.41028171  T        1       0.00049400      -0.00849600       0.01199400       0.00049400      -0.00849600       0.01199400
Sc      -0.00000000      10.88985538      11.41264153  F        0       0.00000000       0.00000000       0.00000000       0.00000000       0.00000000       0.00000000
Sc       0.00000000       3.55353189      14.65486908  F        0       0.00000000       0.00000000       0.00000000       0.00000000       0.00000000       0.00000000
Sc       4.63082743       9.97281456      15.95176029  F        0       0.00000000       0.00000000       0.00000000       0.00000000       0.00000000       0.00000000
Sc       0.00007864       2.68320508      19.23517885  T        1      -0.00044900       0.00488200       0.00303500      -0.00044900       0.00488200       0.00303500
Sc       6.94624090       7.22169352      13.03375530  F        0       0.00000000       0.00000000       0.00000000       0.00000000       0.00000000       0.00000000
Sc       6.94624090      13.64097691      14.33064651  F        0       0.00000000       0.00000000       0.00000000       0.00000000       0.00000000       0.00000000
Sc       6.94624090       6.30465317      17.57287407  F        0       0.00000000       0.00000000       0.00000000       0.00000000       0.00000000       0.00000000
Sc       6.95789939      12.66209840      19.03569645  T        1       0.00419400       0.00402800      -0.00082100       0.00419400       0.00402800      -0.00082100
Sc       6.94624090       0.80241042      11.73686409  F        0       0.00000000       0.00000000       0.00000000       0.00000000       0.00000000       0.00000000
N        4.68666738      10.08001156      22.70801621  T        2      -0.01433400      -0.01014700      -0.02780600      -0.01433400      -0.01014700      -0.02780600