85
Lattice="13.781439781188965 0.0 -0.1072487011551857 -6.824007511138916 11.878798484802246 -3.8905036449432373 0.0 0.0 37.54994201660156" Properties=species:S:1:pos:R:3:move_mask:L:1:tags:I:1:DFT_forces:R:3:forces:R:3:magmoms:R:1 DFT_energy=-328.79134318 energy=-328.79134318 dipole="_JSON [[0.0, 0.0, 0.0]]" magmom=0.0 free_energy=-328.7790713 pbc="T T T"
Na       3.27413535       1.91085541      20.85000610  F        0       0.00000000       0.00000000       0.00000000       0.04292000      -0.17663400       0.23485400       0.00000000
Na      -3.58322859       7.85025454      12.67324162  F        0       0.00000000       0.00000000       0.00000000      -0.07095800      -0.15459800      -0.42517700       0.00000000
Na      -0.14316304       6.90751505      18.22441101  F        0       0.00000000       0.00000000       0.00000000      -0.03199300       0.14939700       0.06569800       0.00000000
Na      -0.17651920       0.96811593      13.93815136  F        0       0.00000000       0.00000000       0.00000000      -0.07648200       0.11169000       0.67714400       0.00000000
Na      -3.28017887      10.30198362      19.79816818  T        1      -0.00118200       0.00225600      -0.00314200      -0.00118200       0.00225600      -0.00314200       0.00000000
Na       3.64994073       4.02854395      15.92591190  F        0       0.00000000       0.00000000       0.00000000      -0.04676700       0.10222400      -0.09821100       0.00000000
Na      -0.18096896       4.09992773      22.40464492  T        1      -0.00043900      -0.00768100       0.00596700      -0.00043900      -0.00768100       0.00596700       0.00000000
Na       0.24323149      10.91068268      14.66100311  F        0       0.00000000       0.00000000       0.00000000      -0.03489200      -0.00785700       0.11657800       0.00000000
Na       0.05003422       8.90909863      10.18438339  F        0       0.00000000       0.00000000       0.00000000       0.28120200      -0.69169200       0.26191500       0.00000000
Na       0.01667807       2.96969962      18.41477013  F        0       0.00000000       0.00000000       0.00000000       0.02040600      -0.08542200       0.02874300       0.00000000
Na       3.46203804       2.96969962      12.12963486  F        0       0.00000000       0.00000000       0.00000000      -0.03705000       0.57076800       0.38441700       0.00000000
Na      -3.39532566       8.90909863      16.46951866  F        0       0.00000000       0.00000000       0.00000000       0.01904800       0.05178200      -0.04099100       0.00000000
Sc      -3.40584838       5.97285997      20.48831720  T        1       0.01074800      -0.00590000      -0.00550600       0.01074800      -0.00590000      -0.00550600       0.00000000
Sc       3.44535995       0.00000000      16.24482918  F        0       0.00000000       0.00000000       0.00000000       0.16148100      -0.57220000       0.34399200       0.00000000
Sc       0.03335615       5.93939924      14.29957676  F        0       0.00000000       0.00000000       0.00000000       0.08607100       0.63751400      -0.78113900       0.00000000
Sc      -6.77118026      11.85973613      18.82310737  T        1       0.00243800      -0.00428600      -0.00997700       0.00243800      -0.00428600      -0.00997700       0.00000000
Cl       4.02266297       4.66151085      22.43388743  T        1      -0.00315100      -0.00323900      -0.00732700      -0.00315100      -0.00323900      -0.00732700       0.00000000
Cl      -2.47785139      10.16725731      14.03564548  F        0       0.00000000       0.00000000       0.00000000      -0.11201100       0.23516300      -0.24122100       0.00000000
Cl       0.93779457       4.87635994      16.44889832  F        0       0.00000000       0.00000000       0.00000000       0.01799400       0.00515100       0.06060300       0.00000000
Cl      -5.83451451      10.74073843      20.78029942  T        1      -0.00786000       0.00425000       0.00525900      -0.00786000       0.00425000       0.00525900       0.00000000
Cl      -4.39238894       7.68721967      18.97600647  T        1      -0.00572900       0.01736600      -0.01423900      -0.00572900       0.01736600      -0.01423900       0.00000000
Cl       2.54456353       1.71154094      14.56350899  F        0       0.00000000       0.00000000       0.00000000      -0.14087300      -0.00289900      -0.47303500       0.00000000
Cl      -0.87108225       7.00243855      12.15025520  F        0       0.00000000       0.00000000       0.00000000       0.00144800      -0.21853200       0.50155800       0.00000000
Cl       5.98628139       1.06303918      20.32701874  F        0       0.00000000       0.00000000       0.00000000      -0.04043700       0.09167000      -0.00545700       0.00000000
Cl      -2.28559732       4.62820482      18.70279503  F        0       0.00000000       0.00000000       0.00000000       0.00717600       0.06997000       0.12571500       0.00000000
Cl      -2.25224113      10.56760406      10.47240829  F        0       0.00000000       0.00000000       0.00000000       0.21551900       0.43640200      -0.22746800       0.00000000
Cl       1.31287693       2.10188779      23.14001795  T        1       0.00594900      -0.00427900      -0.00456700       0.00594900      -0.00427900      -0.00456700       0.00000000
Cl       1.17943013       8.13021183      14.94493771  F        0       0.00000000       0.00000000       0.00000000      -0.01643600      -0.15072200       0.05416900       0.00000000
Cl       2.35230970       7.25059366       9.89635849  F        0       0.00000000       0.00000000       0.00000000      -0.20818800       0.39698500       0.02645800       0.00000000
Cl       2.31895351       1.31119430      18.12674713  F        0       0.00000000       0.00000000       0.00000000       0.07802700       0.02754000      -0.17098800       0.00000000
Cl      -1.07936168       9.68798637      17.94047737  F        0       0.00000000       0.00000000       0.00000000      -0.02742000       0.01496800       0.07572100       0.00000000
Cl      -1.11271787       3.74858665      13.65421677  F        0       0.00000000       0.00000000       0.00000000      -0.17821500      -0.59331400      -0.26467200       0.00000000
Cl       1.37331830       4.72600332      20.25633669  T        1      -0.00465500       0.00730700      -0.00510200      -0.00465500       0.00730700      -0.00510200       0.00000000
Cl      -5.47408295      10.47537231      12.11746979  F        0       0.00000000       0.00000000       0.00000000       0.14433200       0.33813700      -0.12771300       0.00000000
Cl      -2.05036497       6.62183714      15.56801796  F        0       0.00000000       0.00000000       0.00000000       0.10953500      -0.14628400       0.06419300       0.00000000
Cl       4.85138629       0.80022841      23.74921231  T        1      -0.00040800      -0.01059700      -0.00936100      -0.00040800      -0.01059700      -0.00936100       0.00000000
Cl      -1.50906006       7.37626185      20.97005005  T        1      -0.00279300      -0.00574800       0.00201700      -0.00279300      -0.00574800       0.00201700       0.00000000
Cl       5.54079533       1.40342665      16.48168564  F        0       0.00000000       0.00000000       0.00000000      -0.15301700       0.03806400      -0.11959200       0.00000000
Cl       2.11707711       5.25696135      13.03113651  F        0       0.00000000       0.00000000       0.00000000      -0.03402200      -0.31065100       0.17972500       0.00000000
Cl      -4.74028635      11.19636059      17.37101936  F        0       0.00000000       0.00000000       0.00000000       0.01841900      -0.10127200      -0.09528900       0.00000000
Na      10.16485500       1.91085541      20.79638100  F        0       0.00000000       0.00000000       0.00000000      -0.02158200      -0.11718600       0.16532800       0.00000000
Na       3.30749130       7.85025454      12.61961746  F        0       0.00000000       0.00000000       0.00000000      -0.07220900      -0.15012300      -0.43801300       0.00000000
Na       6.74755669       6.90751505      18.17078590  F        0       0.00000000       0.00000000       0.00000000       0.02633900       0.13058300      -0.05030800       0.00000000
Na       6.71420050       0.96811593      13.88452721  F        0       0.00000000       0.00000000       0.00000000      -0.06631900       0.11253600       0.67477000       0.00000000
Na       3.51163170      10.45959024      19.71594644  T        1       0.00287500       0.00214300       0.00132900       0.00287500       0.00214300       0.00132900       0.00000000
Na      10.54066086       4.02854395      15.87228775  F        0       0.00000000       0.00000000       0.00000000      -0.03323400       0.12204300      -0.01902000       0.00000000
Na       6.78371023       4.54958822      22.51606842  T        1       0.00280800      -0.00508600       0.00446500       0.00280800      -0.00508600       0.00446500       0.00000000
Na       7.13395119      10.91068268      14.60737896  F        0       0.00000000       0.00000000       0.00000000      -0.03970100      -0.01836300       0.10710600       0.00000000
Na       6.94075394       8.90909863      10.13075924  F        0       0.00000000       0.00000000       0.00000000       0.27185400      -0.68769400       0.26088200       0.00000000
Na       6.90739775       2.96969962      18.36114693  F        0       0.00000000       0.00000000       0.00000000       0.07469900      -0.16975800       0.00733300       0.00000000
Na      10.35275745       2.96969962      12.07601070  F        0       0.00000000       0.00000000       0.00000000      -0.03878300       0.56942800       0.38849200       0.00000000
Na       3.49539423       8.90909863      16.41589546  F        0       0.00000000       0.00000000       0.00000000       0.00256700       0.07605200      -0.02890300       0.00000000
Sc       3.60783921       5.93881187      20.39962774  T        1       0.00822300       0.00347800       0.00426700       0.00822300       0.00347800       0.00426700       0.00000000
Sc      10.33607960       0.00000000      16.19120407  F        0       0.00000000       0.00000000       0.00000000       0.14135700      -0.51839000       0.38120400       0.00000000
Sc       6.92407608       5.93939924      14.24595261  F        0       0.00000000       0.00000000       0.00000000       0.17609300       0.62051100      -0.76329200       0.00000000
Sc       6.89158055       0.05878137      22.64717686  T        1      -0.01775300       0.00774600      -0.01296900      -0.01775300       0.00774600      -0.01296900       0.00000000
Cl      10.97317752       4.42176252      22.26085302  T        1      -0.00041200       0.00263500      -0.00735000      -0.00041200       0.00263500      -0.00735000       0.00000000
Cl       4.41286850      10.16725731      13.98202133  F        0       0.00000000       0.00000000       0.00000000      -0.10309800       0.21680000      -0.22630600       0.00000000
Cl       7.82851458       4.87635994      16.39527512  F        0       0.00000000       0.00000000       0.00000000      -0.05144600       0.00450900      -0.02002300       0.00000000
Cl       1.01401569      10.88453920      20.73419467  T        1       0.00315300      -0.00338500       0.01692700       0.00315300      -0.00338500       0.01692700       0.00000000
Cl       2.53852893       7.76935188      19.15307270  T        1       0.00178700       0.00294800      -0.00552100       0.00178700       0.00294800      -0.00552100       0.00000000
Cl       9.43528366       1.71154094      14.50988483  F        0       0.00000000       0.00000000       0.00000000      -0.14418400      -0.00669900      -0.48331800       0.00000000
Cl       6.01963758       7.00243855      12.09663105  F        0       0.00000000       0.00000000       0.00000000      -0.00697600      -0.21846900       0.50039200       0.00000000
Cl      12.87700176       1.06303918      20.27339363  F        0       0.00000000       0.00000000       0.00000000       0.05492900       0.13770400       0.11474500       0.00000000
Cl       4.60512257       4.62820482      18.64917183  F        0       0.00000000       0.00000000       0.00000000       0.06319000      -0.08701800      -0.05445400       0.00000000
Cl       4.63847876      10.56760406      10.41878319  F        0       0.00000000       0.00000000       0.00000000       0.22291100       0.42753800      -0.23635100       0.00000000
Cl       8.06568948       2.22193970      23.04408362  T        1       0.00494400      -0.00251400      -0.00508700       0.00494400      -0.00251400      -0.00508700       0.00000000
Cl       8.07015038       8.13021183      14.89131260  F        0       0.00000000       0.00000000       0.00000000      -0.04285000      -0.14982100       0.02113700       0.00000000
Cl       9.24302959       7.25059366       9.84273434  F        0       0.00000000       0.00000000       0.00000000      -0.20675500       0.39602200       0.02580400       0.00000000
Cl       9.20967293       1.31119430      18.07312202  F        0       0.00000000       0.00000000       0.00000000       0.09333000      -0.04033600      -0.22694200       0.00000000
Cl       5.81135798       9.68798637      17.88685226  F        0       0.00000000       0.00000000       0.00000000      -0.06644100       0.01013500       0.07669000       0.00000000
Cl       5.77800179       3.74858665      13.60059261  F        0       0.00000000       0.00000000       0.00000000      -0.19130700      -0.59662200      -0.26378700       0.00000000
Cl       8.23087999       4.59816966      20.11553921  T        1       0.00066700      -0.00095600      -0.01037900       0.00066700      -0.00095600      -0.01037900       0.00000000
Cl       1.41663682      10.47537231      12.06384468  F        0       0.00000000       0.00000000       0.00000000       0.13321800       0.32583200      -0.13323700       0.00000000
Cl       4.84035492       6.62183714      15.51439381  F        0       0.00000000       0.00000000       0.00000000       0.05064700      -0.13878700       0.12307500       0.00000000
Cl      11.83616521       0.82269685      23.73229171  T        1      -0.00950800      -0.00201200       0.00125400      -0.00950800      -0.00201200       0.00125400       0.00000000
Cl       5.56545921       7.32555663      20.88382359  T        1      -0.01127400       0.00246300       0.00833100      -0.01127400       0.00246300       0.00833100       0.00000000
Cl      12.43151569       1.40342665      16.42806053  F        0       0.00000000       0.00000000       0.00000000      -0.13758400       0.01877900      -0.12994700       0.00000000
Cl       9.00779724       5.25696135      12.97751236  F        0       0.00000000       0.00000000       0.00000000      -0.04208900      -0.30878000       0.17579100       0.00000000
Cl       2.15043330      11.19636059      17.31739616  F        0       0.00000000       0.00000000       0.00000000      -0.02622300      -0.01135200      -0.02120300       0.00000000
N        8.48309760       6.39273234      23.20668238  T        2      -0.01107700      -0.02001000       0.02586700      -0.01107700      -0.02001000       0.02586700       0.00000000
H        9.30310751       5.80193945      23.43981307  T        2       0.00026600      -0.01116600       0.00257800       0.00026600      -0.01116600       0.00257800       0.00000000
H        8.47032672       7.13122267      23.93235135  T        2      -0.00557200       0.00005900      -0.00181400      -0.00557200       0.00005900      -0.00181400       0.00000000
O        8.97519363       7.10812070      22.01422409  T        2       0.01612700       0.01548900      -0.03207300       0.01612700       0.01548900      -0.03207300       0.00000000
H        8.14689172       7.39993226      21.56858131  T        2       0.00665700       0.00430100      -0.00202400       0.00665700       0.00430100      -0.00202400       0.00000000
85
Lattice="13.781439781188965 0.0 -0.1072487011551857 -6.824007511138916 11.878798484802246 -3.8905036449432373 0.0 0.0 37.54994201660156" Properties=species:S:1:pos:R:3:move_mask:L:1:tags:I:1:DFT_forces:R:3:forces:R:3 DFT_energy=-328.67456076 energy=-328.67456076 pbc="T T T"
Na       3.27413535       1.91085541      20.85000610  F        0       0.00000000       0.00000000       0.00000000       0.00000000       0.00000000       0.00000000
Na      -3.58322859       7.85025454      12.67324162  F        0       0.00000000       0.00000000       0.00000000       0.00000000       0.00000000       0.00000000
Na      -0.14316304       6.90751505      18.22441101  F        0       0.00000000       0.00000000       0.00000000       0.00000000       0.00000000       0.00000000
Na      -0.17651920       0.96811593      13.93815136  F        0       0.00000000       0.00000000       0.00000000       0.00000000       0.00000000       0.00000000
Na      -3.15223519      10.14277708      19.97670832  T        1      -0.00119200      -0.00345500      -0.00396300      -0.00119200      -0.00345500      -0.00396300
Na       3.64994073       4.02854395      15.92591190  F        0       0.00000000       0.00000000       0.00000000       0.00000000       0.00000000       0.00000000
Na      -0.45443984       3.50270441      22.24162316  T        1      -0.00917400       0.00509500      -0.00433100      -0.00917400       0.00509500      -0.00433100
Na       0.24323149      10.91068268      14.66100311  F        0       0.00000000       0.00000000       0.00000000       0.00000000       0.00000000       0.00000000
Na       0.05003422       8.90909863      10.18438339  F        0       0.00000000       0.00000000       0.00000000       0.00000000       0.00000000       0.00000000
Na       0.01667807       2.96969962      18.41477013  F        0       0.00000000       0.00000000       0.00000000       0.00000000       0.00000000       0.00000000
Na       3.46203804       2.96969962      12.12963486  F        0       0.00000000       0.00000000       0.00000000       0.00000000       0.00000000       0.00000000
Na      -3.39532566       8.90909863      16.46951866  F        0       0.00000000       0.00000000       0.00000000       0.00000000       0.00000000       0.00000000
Sc      -3.49825953       5.97504538      20.42278446  T        1       0.00921700      -0.01078300      -0.01799800       0.00921700      -0.01078300      -0.01799800
Sc       3.44535995       0.00000000      16.24482918  F        0       0.00000000       0.00000000       0.00000000       0.00000000       0.00000000       0.00000000
Sc       0.03335615       5.93939924      14.29957676  F        0       0.00000000       0.00000000       0.00000000       0.00000000       0.00000000       0.00000000
Sc      -6.68949558      11.76248969      18.90224678  T        1      -0.00691900       0.00297100       0.00079600      -0.00691900       0.00297100       0.00079600
Cl       3.99963103       4.41404922      22.23309773  T        1       0.00039100       0.00152600       0.01235900       0.00039100       0.00152600       0.01235900
Cl      -2.47785139      10.16725731      14.03564548  F        0       0.00000000       0.00000000       0.00000000       0.00000000       0.00000000       0.00000000
Cl       0.93779457       4.87635994      16.44889832  F        0       0.00000000       0.00000000       0.00000000       0.00000000       0.00000000       0.00000000
Cl      -5.79318595      10.61166534      20.82941482  T        1      -0.00243100       0.00483200      -0.00037700      -0.00243100       0.00483200      -0.00037700
Cl      -4.42663056       7.67592638      18.87236617  T        1      -0.01420200       0.00355000      -0.00474300      -0.01420200       0.00355000      -0.00474300
Cl       2.54456353       1.71154094      14.56350899  F        0       0.00000000       0.00000000       0.00000000       0.00000000       0.00000000       0.00000000
Cl      -0.87108225       7.00243855      12.15025520  F        0       0.00000000       0.00000000       0.00000000       0.00000000       0.00000000       0.00000000
Cl       5.98628139       1.06303918      20.32701874  F        0       0.00000000       0.00000000       0.00000000       0.00000000       0.00000000       0.00000000
Cl      -2.28559732       4.62820482      18.70279503  F        0       0.00000000       0.00000000       0.00000000       0.00000000       0.00000000       0.00000000
Cl      -2.25224113      10.56760406      10.47240829  F        0       0.00000000       0.00000000       0.00000000       0.00000000       0.00000000       0.00000000
Cl       1.37659646       1.99660780      23.24121746  T        1       0.00063300      -0.00264100      -0.00242700       0.00063300      -0.00264100      -0.00242700
Cl       1.17943013       8.13021183      14.94493771  F        0       0.00000000       0.00000000       0.00000000       0.00000000       0.00000000       0.00000000
Cl       2.35230970       7.25059366       9.89635849  F        0       0.00000000       0.00000000       0.00000000       0.00000000       0.00000000       0.00000000
Cl       2.31895351       1.31119430      18.12674713  F        0       0.00000000       0.00000000       0.00000000       0.00000000       0.00000000       0.00000000
Cl      -1.07936168       9.68798637      17.94047737  F        0       0.00000000       0.00000000       0.00000000       0.00000000       0.00000000       0.00000000
Cl      -1.11271787       3.74858665      13.65421677  F        0       0.00000000       0.00000000       0.00000000       0.00000000       0.00000000       0.00000000
Cl       1.16142894       4.84104939      20.34442483  T        1       0.00143100      -0.00353200      -0.00010000       0.00143100      -0.00353200      -0.00010000
Cl      -5.47408295      10.47537231      12.11746979  F        0       0.00000000       0.00000000       0.00000000       0.00000000       0.00000000       0.00000000
Cl      -2.05036497       6.62183714      15.56801796  F        0       0.00000000       0.00000000       0.00000000       0.00000000       0.00000000       0.00000000
Cl       4.88827793       0.72524850      23.79854131  T        1      -0.00545500       0.00034200       0.00002900      -0.00545500       0.00034200       0.00002900
Cl      -1.85272058       7.56859387      21.10620909  T        1       0.02355900       0.02241300       0.00301600       0.02355900       0.02241300       0.00301600
Cl       5.54079533       1.40342665      16.48168564  F        0       0.00000000       0.00000000       0.00000000       0.00000000       0.00000000       0.00000000
Cl       2.11707711       5.25696135      13.03113651  F        0       0.00000000       0.00000000       0.00000000       0.00000000       0.00000000       0.00000000
Cl      -4.74028635      11.19636059      17.37101936  F        0       0.00000000       0.00000000       0.00000000       0.00000000       0.00000000       0.00000000
Na      10.16485500       1.91085541      20.79638100  F        0       0.00000000       0.00000000       0.00000000       0.00000000       0.00000000       0.00000000
Na       3.30749130       7.85025454      12.61961746  F        0       0.00000000       0.00000000       0.00000000       0.00000000       0.00000000       0.00000000
Na       6.74755669       6.90751505      18.17078590  F        0       0.00000000       0.00000000       0.00000000       0.00000000       0.00000000       0.00000000
Na       6.71420050       0.96811593      13.88452721  F        0       0.00000000       0.00000000       0.00000000       0.00000000       0.00000000       0.00000000
Na       3.55913206      10.34455132      19.74831467  T        1       0.00137900       0.00441800      -0.00091800       0.00137900       0.00441800      -0.00091800
Na      10.54066086       4.02854395      15.87228775  F        0       0.00000000       0.00000000       0.00000000       0.00000000       0.00000000       0.00000000
Na       6.69598375       4.36315716      22.63245636  T        1       0.00025900      -0.00076100      -0.01091100       0.00025900      -0.00076100      -0.01091100
Na       7.13395119      10.91068268      14.60737896  F        0       0.00000000       0.00000000       0.00000000       0.00000000       0.00000000       0.00000000
Na       6.94075394       8.90909863      10.13075924  F        0       0.00000000       0.00000000       0.00000000       0.00000000       0.00000000       0.00000000
Na       6.90739775       2.96969962      18.36114693  F        0       0.00000000       0.00000000       0.00000000       0.00000000       0.00000000       0.00000000
Na      10.35275745       2.96969962      12.07601070  F        0       0.00000000       0.00000000       0.00000000       0.00000000       0.00000000       0.00000000
Na       3.49539423       8.90909863      16.41589546  F        0       0.00000000       0.00000000       0.00000000       0.00000000       0.00000000       0.00000000
Sc       3.46261691       5.90517291      20.36307839  T        1       0.01690100       0.00900100      -0.00025500       0.01690100       0.00900100      -0.00025500
Sc      10.33607960       0.00000000      16.19120407  F        0       0.00000000       0.00000000       0.00000000       0.00000000       0.00000000       0.00000000
Sc       6.92407608       5.93939924      14.24595261  F        0       0.00000000       0.00000000       0.00000000       0.00000000       0.00000000       0.00000000
Sc       6.91040273       0.00814585      22.65737546  T        1       0.00668700       0.00804700      -0.00775600       0.00668700       0.00804700      -0.00775600
Cl      10.84153274       4.42886641      22.17703724  T        1       0.01454300      -0.00505400       0.01335600       0.01454300      -0.00505400       0.01335600
Cl       4.41286850      10.16725731      13.98202133  F        0       0.00000000       0.00000000       0.00000000       0.00000000       0.00000000       0.00000000
Cl       7.82851458       4.87635994      16.39527512  F        0       0.00000000       0.00000000       0.00000000       0.00000000       0.00000000       0.00000000
Cl       1.04647534      10.78725213      20.71907675  T        1      -0.00040000       0.00228600       0.00354700      -0.00040000       0.00228600       0.00354700
Cl       2.49279169       7.66994734      18.90596547  T        1      -0.00073400       0.00858400      -0.00136100      -0.00073400       0.00858400      -0.00136100
Cl       9.43528366       1.71154094      14.50988483  F        0       0.00000000       0.00000000       0.00000000       0.00000000       0.00000000       0.00000000
Cl       6.01963758       7.00243855      12.09663105  F        0       0.00000000       0.00000000       0.00000000       0.00000000       0.00000000       0.00000000
Cl      12.87700176       1.06303918      20.27339363  F        0       0.00000000       0.00000000       0.00000000       0.00000000       0.00000000       0.00000000
Cl       4.60512257       4.62820482      18.64917183  F        0       0.00000000       0.00000000       0.00000000       0.00000000       0.00000000       0.00000000
Cl       4.63847876      10.56760406      10.41878319  F        0       0.00000000       0.00000000       0.00000000       0.00000000       0.00000000       0.00000000
Cl       8.12466318       2.15144973      23.05972334  T        1      -0.00379300      -0.00300500      -0.00330500      -0.00379300      -0.00300500      -0.00330500
Cl       8.07015038       8.13021183      14.89131260  F        0       0.00000000       0.00000000       0.00000000       0.00000000       0.00000000       0.00000000
Cl       9.24302959       7.25059366       9.84273434  F        0       0.00000000       0.00000000       0.00000000       0.00000000       0.00000000       0.00000000
Cl       9.20967293       1.31119430      18.07312202  F        0       0.00000000       0.00000000       0.00000000       0.00000000       0.00000000       0.00000000
Cl       5.81135798       9.68798637      17.88685226  F        0       0.00000000       0.00000000       0.00000000       0.00000000       0.00000000       0.00000000
Cl       5.77800179       3.74858665      13.60059261  F        0       0.00000000       0.00000000       0.00000000       0.00000000       0.00000000       0.00000000
Cl       8.03909483       4.81505264      20.15412433  T        1      -0.01173000      -0.02271200      -0.00449100      -0.01173000      -0.02271200      -0.00449100
Cl       1.41663682      10.47537231      12.06384468  F        0       0.00000000       0.00000000       0.00000000       0.00000000       0.00000000       0.00000000
Cl       4.84035492       6.62183714      15.51439381  F        0       0.00000000       0.00000000       0.00000000       0.00000000       0.00000000       0.00000000
Cl      11.88193442       0.79113845      23.72189238  T        1       0.00284700       0.00095200      -0.00788100       0.00284700       0.00095200      -0.00788100
Cl       5.10854489       7.51099502      21.11480199  T        1       0.00285600      -0.00960400      -0.00563600       0.00285600      -0.00960400      -0.00563600
Cl      12.43151569       1.40342665      16.42806053  F        0       0.00000000       0.00000000       0.00000000       0.00000000       0.00000000       0.00000000
Cl       9.00779724       5.25696135      12.97751236  F        0       0.00000000       0.00000000       0.00000000       0.00000000       0.00000000       0.00000000
Cl       2.15043330      11.19636059      17.31739616  F        0       0.00000000       0.00000000       0.00000000       0.00000000       0.00000000       0.00000000
N        8.12967272       6.20817034      23.58043277  T        2       0.00929700       0.00616900      -0.01546300       0.00929700       0.00616900      -0.01546300