78
Lattice="15.075569152832031 -1.1304866704696985e-31 -9.231123877854975e-16 6.022646718159227e-16 9.835728645324707 -0.3127800524234772 -0.0 3.447165326759616e-15 28.14824104309082" Properties=species:S:1:pos:R:3:move_mask:L:1:tags:I:1:DFT_forces:R:3:forces:R:3:magmoms:R:1 DFT_energy=-430.77156925 energy=-430.77156925 dipole="_JSON [[0.0, 0.0, 0.0]]" magmom=0.0 free_energy=-430.7567088 pbc="T T T"
Ni       4.29141998       3.38533282      10.85261440  F        0       0.00000000       0.00000000       0.00000000      -0.04624300       0.17976200       1.00129800       0.00000000
Ni       4.29141998       6.66390896      13.09404087  F        0       0.00000000       0.00000000       0.00000000      -0.04731200      -0.01153300       0.01063200       0.00000000
Ni       4.12933860       0.32055590      15.42021228  T        1       0.00987600       0.01066500      -0.00203000       0.00987600       0.01066500      -0.00203000       0.00000000
Ni       3.24636483       1.74604475      13.25043106  F        0       0.00000000       0.00000000       0.00000000       0.00574100      -0.00480500      -0.06915800       0.00000000
Ni       3.34014840       5.18275153      15.31229757  T        1      -0.01001800       0.02895200      -0.00295400      -0.01001800       0.02895200      -0.00295400       0.00000000
Ni       3.24636483       8.30319691      10.69622421  F        0       0.00000000       0.00000000       0.00000000       0.03224200       0.17441000       1.00635200       0.00000000
As       6.66120722       4.02073131      16.93832508  T        1       0.03919900      -0.01272900      -0.00135000       0.03919900      -0.01272900      -0.00135000       0.00000000
As       6.46150398       7.28784513      12.18139839  F        0       0.00000000       0.00000000       0.00000000       0.00538900      -0.03285200      -0.60719700       0.00000000
As       6.46150398       0.73069263      14.73560524  F        0       0.00000000       0.00000000       0.00000000      -0.59954300       0.00081900       0.19174200       0.00000000
As       1.07628047       2.36998057      12.33778858  F        0       0.00000000       0.00000000       0.00000000      -0.00156400      -0.08208400      -0.71974400       0.00000000
As       1.07628047       5.64855671      14.57921505  F        0       0.00000000       0.00000000       0.00000000       0.52879700       0.03967400      -0.06791500       0.00000000
As       0.85030854       8.91867305      16.78124983  T        1       0.00153400       0.00809200       0.01234200       0.00153400       0.00809200       0.01234200       0.00000000
As       4.82277632       0.86849147      11.01551437  F        0       0.00000000       0.00000000       0.00000000      -0.64571500       0.45169900       0.08996200       0.00000000
As       4.82277632       4.14706755      13.25694084  F        0       0.00000000       0.00000000       0.00000000       0.20636900      -0.18515900      -0.26564700       0.00000000
As       4.72796175       7.18938556      15.80394459  T        1      -0.00352100      -0.01487800       0.01525100      -0.00352100      -0.01487800       0.01525100       0.00000000
As       2.75019005       2.37754909      15.86952807  T        1       0.03181600       0.01399200      -0.01233800       0.03181600       0.01399200      -0.01233800       0.00000000
As       2.71500826       5.78635550      10.85912418  F        0       0.00000000       0.00000000       0.00000000       0.64158200       0.45419200       0.08210400       0.00000000
As       2.71500826       9.06493187      13.10055065  F        0       0.00000000       0.00000000       0.00000000      -0.29814400      -0.12037900      -0.18189600       0.00000000
Rh       7.22015244       1.62128537      16.87192462  T        1       0.01703700       0.00544100       0.02729100       0.01703700       0.00544100       0.02729100       0.00000000
Rh       7.00186777       4.81110764      12.28563786  F        0       0.00000000       0.00000000       0.00000000      -0.20731000      -0.09913100       0.11195600       0.00000000
Rh       7.00186777       8.08968353      14.52706432  F        0       0.00000000       0.00000000       0.00000000       0.02485700       0.13626700      -0.65239400       0.00000000
Rh       0.53591669       3.17181945      14.68345451  F        0       0.00000000       0.00000000       0.00000000       0.21762200       0.35200500      -0.03224400       0.00000000
Rh       0.35068222       6.50812612      16.71699561  T        1       0.02486600       0.00317900       0.02569200       0.02486600       0.00317900       0.02569200       0.00000000
Rh       0.53591669       9.72897148      12.12924767  F        0       0.00000000       0.00000000       0.00000000       0.26071900      -0.08948300       0.18511000       0.00000000
Rh       1.49854054       3.99069774      17.15685433  T        1       0.00779000      -0.01163300       0.00360400       0.00779000      -0.01163300       0.00360400       0.00000000
Rh       1.37483978       7.03085566      12.55730057  F        0       0.00000000       0.00000000       0.00000000       0.00969800      -0.27476300      -0.16790300       0.00000000
Rh       1.38932565       0.49259612      15.13294111  T        1      -0.01253400      -0.01520900       0.01622900      -0.01253400      -0.01520900       0.01622900       0.00000000
Rh       6.16294479       2.11299157      12.71369076  F        0       0.00000000       0.00000000       0.00000000      -0.01518600      -0.24263800      -0.21718000       0.00000000
Rh       6.13060662       5.41728671      14.93434215  T        1      -0.01247100       0.00649000       0.03939500      -0.01247100       0.00649000       0.03939500       0.00000000
Rh       5.90029644       9.02856674      16.78014850  T        1       0.02965700      -0.02463500      -0.01200300       0.02965700      -0.02463500      -0.01200300       0.00000000
Rh       2.48259377       1.12507451      10.64020538  F        0       0.00000000       0.00000000       0.00000000       0.13096700       0.14771600       1.02740800       0.00000000
Rh       2.48259377       4.40365076      12.88163185  F        0       0.00000000       0.00000000       0.00000000      -0.52081300      -0.32003400      -0.85440400       0.00000000
Rh       2.49377775       7.77840508      15.19824383  T        1       0.02322800      -0.01214900       0.00033600       0.02322800      -0.01214900       0.00033600       0.00000000
Rh       5.04144554       2.86070001      15.35116769  T        1      -0.00730300      -0.02982600      -0.01018700      -0.00730300      -0.02982600      -0.01018700       0.00000000
Rh       5.05519104       6.04293871      10.48381519  F        0       0.00000000       0.00000000       0.00000000      -0.12619700       0.12153000       1.02302700       0.00000000
Rh       5.05519104       9.32151508      12.72524166  F        0       0.00000000       0.00000000       0.00000000       0.55987400      -0.30772300      -0.83840500       0.00000000
Ni      11.82920456       3.38533282      10.85261440  F        0       0.00000000       0.00000000       0.00000000      -0.01623400       0.16637900       1.00948300       0.00000000
Ni      11.82920456       6.66390896      13.09404087  F        0       0.00000000       0.00000000       0.00000000      -0.03099600       0.00898000      -0.01034500       0.00000000
Ni      11.69642849       0.30318136      15.46135557  T        1       0.01248300      -0.00521700      -0.00415200       0.01248300      -0.00521700      -0.00415200       0.00000000
Ni      10.78414917       1.74604475      13.25043106  F        0       0.00000000       0.00000000       0.00000000       0.05133700      -0.04244900      -0.07998600       0.00000000
Ni      10.91767897       5.22610935      15.27982712  T        1      -0.01442700       0.00990600      -0.00633600      -0.01442700       0.00990600      -0.00633600       0.00000000
Ni      10.78414917       8.30319691      10.69622421  F        0       0.00000000       0.00000000       0.00000000       0.03164900       0.19093000       0.99727800       0.00000000
As      14.12497271       3.99298228      16.91609231  T        1       0.00368900      -0.02633700      -0.00710600       0.00368900      -0.02633700      -0.00710600       0.00000000
As      13.99928856       7.28784513      12.18139839  F        0       0.00000000       0.00000000       0.00000000       0.01530900      -0.03747800      -0.63182300       0.00000000
As      13.99928856       0.73069263      14.73560524  F        0       0.00000000       0.00000000       0.00000000      -0.62044300      -0.00992800      -0.05648800       0.00000000
As       8.61406517       2.36998057      12.33778858  F        0       0.00000000       0.00000000       0.00000000      -0.01096400      -0.03441400      -0.55894000       0.00000000
As       8.61406517       5.64855671      14.57921505  F        0       0.00000000       0.00000000       0.00000000       0.52744100       0.00812800       0.27310700       0.00000000
As       8.36162842       8.94216245      16.78659930  T        1      -0.00922900       0.01554800      -0.01313800      -0.00922900       0.01554800      -0.01313800       0.00000000
As      12.36056137       0.86849147      11.01551437  F        0       0.00000000       0.00000000       0.00000000      -0.66318700       0.43814900       0.08319100       0.00000000
As      12.36056137       4.14706755      13.25694084  F        0       0.00000000       0.00000000       0.00000000       0.20824500      -0.13143400      -0.32885000       0.00000000
As      12.24639896       7.21108583      15.77797624  T        1      -0.01615700      -0.02068800       0.00281000      -0.01615700      -0.02068800       0.00281000       0.00000000
As      10.31753774       2.26920784      16.03581471  T        1      -0.01014000      -0.00354900       0.00098000      -0.01014000      -0.00354900       0.00098000       0.00000000
As      10.25279331       5.78635550      10.85912418  F        0       0.00000000       0.00000000       0.00000000       0.64267600       0.44591300       0.08006200       0.00000000
As      10.25279331       9.06493187      13.10055065  F        0       0.00000000       0.00000000       0.00000000      -0.23211500      -0.17108000      -0.19500200       0.00000000
Rh      14.67084573       1.59126127      16.87842650  T        1      -0.01881200       0.00853300       0.00981200      -0.01881200       0.00853300       0.00981200       0.00000000
Rh      14.53965282       4.81110764      12.28563786  F        0       0.00000000       0.00000000       0.00000000      -0.21744100      -0.11349300       0.12401200       0.00000000
Rh      14.53965282       8.08968353      14.52706432  F        0       0.00000000       0.00000000       0.00000000      -0.02325400       0.04308700      -0.41535500       0.00000000
Rh       8.07370090       3.17181945      14.68345451  F        0       0.00000000       0.00000000       0.00000000      -0.05408300       0.12538500      -0.61663500       0.00000000
Rh       7.81795325       6.53830142      16.72723755  T        1       0.00782700      -0.00557100       0.00180600       0.00782700      -0.00557100       0.00180600       0.00000000
Rh       8.07370090       9.72897148      12.12924767  F        0       0.00000000       0.00000000       0.00000000       0.22333900      -0.09875800       0.14848100       0.00000000
Rh       9.12024499       4.12367074      16.95755094  T        1      -0.01055000      -0.04108600      -0.00430900      -0.01055000      -0.04108600      -0.00430900       0.00000000
Rh       8.91262436       7.03085566      12.55730057  F        0       0.00000000       0.00000000       0.00000000       0.01909200      -0.24028900      -0.22424000       0.00000000
Rh       8.94575540       0.50569182      15.10134567  T        1      -0.00252000      -0.01663400       0.01670000      -0.00252000      -0.01663400       0.01670000       0.00000000
Rh      13.70072937       2.11299157      12.71369076  F        0       0.00000000       0.00000000       0.00000000      -0.09481000      -0.25043100      -0.21068300       0.00000000
Rh      13.66919962       5.41653262      14.94545189  T        1      -0.00464800      -0.01547300       0.02109200      -0.00464800      -0.01547300       0.02109200       0.00000000
Rh      13.48913496       8.95674239      16.83862675  T        1       0.00951400      -0.03490800       0.00583600       0.00951400      -0.03490800       0.00583600       0.00000000
Rh      10.02037811       1.12507451      10.64020538  F        0       0.00000000       0.00000000       0.00000000       0.13961000       0.12246500       1.02225400       0.00000000
Rh      10.02037811       4.40365076      12.88163185  F        0       0.00000000       0.00000000       0.00000000      -0.56082500      -0.32399900      -0.83893800       0.00000000
Rh       9.99755384       7.77802370      15.20347713  T        1       0.00368400      -0.01656800       0.01619300       0.00368400      -0.01656800       0.01619300       0.00000000
Rh      12.52762453       2.85538020      15.33823339  T        1       0.01965300      -0.00376400       0.00779900       0.01965300      -0.00376400       0.00779900       0.00000000
Rh      12.59297562       6.04293871      10.48381519  F        0       0.00000000       0.00000000       0.00000000      -0.14263100       0.14568900       1.02384300       0.00000000
Rh      12.59297562       9.32151508      12.72524166  F        0       0.00000000       0.00000000       0.00000000       0.55978100      -0.29257200      -0.79455700       0.00000000
C        2.32825545       5.01996908      18.91082105  T        2      -0.00738700      -0.01724100      -0.01233100      -0.00738700      -0.01724100      -0.01233100       0.00000000
C        2.02073067       3.68175233      19.24108961  T        2       0.00510400       0.02271200      -0.02381600       0.00510400       0.02271200      -0.02381600       0.00000000
H        3.35603258       5.31914308      18.68568260  T        2       0.01297900       0.00590100       0.01422900       0.01297900       0.00590100       0.01422900       0.00000000
H        1.66934558       5.83525981      19.23469811  T        2       0.01539600      -0.01155500       0.00044800       0.01539600      -0.01155500       0.00044800       0.00000000
H        2.81385710       2.93006850      19.30188029  T        2       0.03465700      -0.03051400      -0.00693400       0.03465700      -0.03051400      -0.00693400       0.00000000
H        1.11544117       3.44465049      19.80810786  T        2      -0.03759900      -0.00551900       0.02576700      -0.03759900      -0.00551900       0.02576700       0.00000000
78
Lattice="15.075569152832031 -1.1304866704696985e-31 -9.231123877854975e-16 6.022646718159227e-16 9.835728645324707 -0.3127800524234772 -0.0 3.447165326759616e-15 28.14824104309082" Properties=species:S:1:pos:R:3:move_mask:L:1:tags:I:1:DFT_forces:R:3:forces:R:3 DFT_energy=-430.60878052 energy=-430.60878052 pbc="T T T"
Ni       4.29141998       3.38533282      10.85261440  F        0       0.00000000       0.00000000       0.00000000       0.00000000       0.00000000       0.00000000
Ni       4.29141998       6.66390896      13.09404087  F        0       0.00000000       0.00000000       0.00000000       0.00000000       0.00000000       0.00000000
Ni       4.13755590       0.31063515      15.42197364  T        1      -0.01234800       0.00342500      -0.00260300      -0.01234800       0.00342500      -0.00260300
Ni       3.24636483       1.74604475      13.25043106  F        0       0.00000000       0.00000000       0.00000000       0.00000000       0.00000000       0.00000000
Ni       3.30134444       5.14880643      15.35391105  T        1      -0.00301000      -0.01179500      -0.00473400      -0.00301000      -0.01179500      -0.00473400
Ni       3.24636483       8.30319691      10.69622421  F        0       0.00000000       0.00000000       0.00000000       0.00000000       0.00000000       0.00000000
As       6.68200118       4.00692212      16.92690201  T        1      -0.00343700      -0.00010600       0.00301200      -0.00343700      -0.00010600       0.00301200
As       6.46150398       7.28784513      12.18139839  F        0       0.00000000       0.00000000       0.00000000       0.00000000       0.00000000       0.00000000
As       6.46150398       0.73069263      14.73560524  F        0       0.00000000       0.00000000       0.00000000       0.00000000       0.00000000       0.00000000
As       1.07628047       2.36998057      12.33778858  F        0       0.00000000       0.00000000       0.00000000       0.00000000       0.00000000       0.00000000
As       1.07628047       5.64855671      14.57921505  F        0       0.00000000       0.00000000       0.00000000       0.00000000       0.00000000       0.00000000
As       0.87790181       8.87619972      16.77778043  T        1      -0.00969300      -0.00165000       0.00343300      -0.00969300      -0.00165000       0.00343300
As       4.82277632       0.86849147      11.01551437  F        0       0.00000000       0.00000000       0.00000000       0.00000000       0.00000000       0.00000000
As       4.82277632       4.14706755      13.25694084  F        0       0.00000000       0.00000000       0.00000000       0.00000000       0.00000000       0.00000000
As       4.72092750       7.15059356      15.85399119  T        1       0.00810100       0.01330200       0.00506900       0.00810100       0.01330200       0.00506900
As       2.72667878       2.45517995      15.93704109  T        1      -0.03361400      -0.00382800       0.00546100      -0.03361400      -0.00382800       0.00546100
As       2.71500826       5.78635550      10.85912418  F        0       0.00000000       0.00000000       0.00000000       0.00000000       0.00000000       0.00000000
As       2.71500826       9.06493187      13.10055065  F        0       0.00000000       0.00000000       0.00000000       0.00000000       0.00000000       0.00000000
Rh       7.22307306       1.60711711      16.87639775  T        1       0.00071100      -0.00144500      -0.00925300       0.00071100      -0.00144500      -0.00925300
Rh       7.00186777       4.81110764      12.28563786  F        0       0.00000000       0.00000000       0.00000000       0.00000000       0.00000000       0.00000000
Rh       7.00186777       8.08968353      14.52706432  F        0       0.00000000       0.00000000       0.00000000       0.00000000       0.00000000       0.00000000
Rh       0.53591669       3.17181945      14.68345451  F        0       0.00000000       0.00000000       0.00000000       0.00000000       0.00000000       0.00000000
Rh       0.41861777       6.45718945      16.74549365  T        1      -0.00052600      -0.00293200       0.00045300      -0.00052600      -0.00293200       0.00045300
Rh       0.53591669       9.72897148      12.12924767  F        0       0.00000000       0.00000000       0.00000000       0.00000000       0.00000000       0.00000000
Rh       1.44662336       3.89669241      17.41705201  T        1       0.00526500      -0.00036100      -0.03158300       0.00526500      -0.00036100      -0.03158300
Rh       1.37483978       7.03085566      12.55730057  F        0       0.00000000       0.00000000       0.00000000       0.00000000       0.00000000       0.00000000
Rh       1.41852026       0.50913717      15.17690016  T        1      -0.00304600       0.01676400      -0.00894700      -0.00304600       0.01676400      -0.00894700
Rh       6.16294479       2.11299157      12.71369076  F        0       0.00000000       0.00000000       0.00000000       0.00000000       0.00000000       0.00000000
Rh       6.11445682       5.41065002      14.93984242  T        1      -0.00471100      -0.00916400      -0.00436800      -0.00471100      -0.00916400      -0.00436800
Rh       5.89129417       9.01424055      16.77690685  T        1      -0.00515700      -0.00852100      -0.00216800      -0.00515700      -0.00852100      -0.00216800
Rh       2.48259377       1.12507451      10.64020538  F        0       0.00000000       0.00000000       0.00000000       0.00000000       0.00000000       0.00000000
Rh       2.48259377       4.40365076      12.88163185  F        0       0.00000000       0.00000000       0.00000000       0.00000000       0.00000000       0.00000000
Rh       2.51433053       7.76170274      15.18789214  T        1      -0.00413100      -0.00376400       0.01286300      -0.00413100      -0.00376400       0.01286300
Rh       5.02033085       2.84249075      15.35222625  T        1       0.02247800       0.01660200      -0.00262800       0.02247800       0.01660200      -0.00262800
Rh       5.05519104       6.04293871      10.48381519  F        0       0.00000000       0.00000000       0.00000000       0.00000000       0.00000000       0.00000000
Rh       5.05519104       9.32151508      12.72524166  F        0       0.00000000       0.00000000       0.00000000       0.00000000       0.00000000       0.00000000
Ni      11.82920456       3.38533282      10.85261440  F        0       0.00000000       0.00000000       0.00000000       0.00000000       0.00000000       0.00000000
Ni      11.82920456       6.66390896      13.09404087  F        0       0.00000000       0.00000000       0.00000000       0.00000000       0.00000000       0.00000000
Ni      11.72388460       0.27742833      15.48503638  T        1      -0.01458600      -0.00739900       0.00394600      -0.01458600      -0.00739900       0.00394600
Ni      10.78414917       1.74604475      13.25043106  F        0       0.00000000       0.00000000       0.00000000       0.00000000       0.00000000       0.00000000
Ni      10.92008037       5.21408730      15.27708179  T        1      -0.00557400       0.00253800       0.00124900      -0.00557400       0.00253800       0.00124900
Ni      10.78414917       8.30319691      10.69622421  F        0       0.00000000       0.00000000       0.00000000       0.00000000       0.00000000       0.00000000
As      14.13393233       3.96473292      16.92561747  T        1      -0.00832900       0.00800700      -0.00228800      -0.00832900       0.00800700      -0.00228800
As      13.99928856       7.28784513      12.18139839  F        0       0.00000000       0.00000000       0.00000000       0.00000000       0.00000000       0.00000000
As      13.99928856       0.73069263      14.73560524  F        0       0.00000000       0.00000000       0.00000000       0.00000000       0.00000000       0.00000000
As       8.61406517       2.36998057      12.33778858  F        0       0.00000000       0.00000000       0.00000000       0.00000000       0.00000000       0.00000000
As       8.61406517       5.64855671      14.57921505  F        0       0.00000000       0.00000000       0.00000000       0.00000000       0.00000000       0.00000000
As       8.34966461       8.92669937      16.78420687  T        1      -0.00193400      -0.00446600      -0.00480200      -0.00193400      -0.00446600      -0.00480200
As      12.36056137       0.86849147      11.01551437  F        0       0.00000000       0.00000000       0.00000000       0.00000000       0.00000000       0.00000000
As      12.36056137       4.14706755      13.25694084  F        0       0.00000000       0.00000000       0.00000000       0.00000000       0.00000000       0.00000000
As      12.24740005       7.20623711      15.77269123  T        1       0.00538900      -0.00129300      -0.02616500       0.00538900      -0.00129300      -0.02616500
As      10.33569585       2.24608768      16.03172135  T        1      -0.00691100      -0.00824500       0.00402700      -0.00691100      -0.00824500       0.00402700
As      10.25279331       5.78635550      10.85912418  F        0       0.00000000       0.00000000       0.00000000       0.00000000       0.00000000       0.00000000
As      10.25279331       9.06493187      13.10055065  F        0       0.00000000       0.00000000       0.00000000       0.00000000       0.00000000       0.00000000
Rh      14.63211424       1.54934397      16.89333514  T        1       0.00121400      -0.00939500       0.01107600       0.00121400      -0.00939500       0.01107600
Rh      14.53965282       4.81110764      12.28563786  F        0       0.00000000       0.00000000       0.00000000       0.00000000       0.00000000       0.00000000
Rh      14.53965282       8.08968353      14.52706432  F        0       0.00000000       0.00000000       0.00000000       0.00000000       0.00000000       0.00000000
Rh       8.07370090       3.17181945      14.68345451  F        0       0.00000000       0.00000000       0.00000000       0.00000000       0.00000000       0.00000000
Rh       7.82465753       6.51465439      16.72234095  T        1       0.00040300       0.00931800       0.00989200       0.00040300       0.00931800       0.00989200
Rh       8.07370090       9.72897148      12.12924767  F        0       0.00000000       0.00000000       0.00000000       0.00000000       0.00000000       0.00000000
Rh       9.13997976       4.09075651      16.95752058  T        1      -0.00142400       0.01077000       0.00754600      -0.00142400       0.01077000       0.00754600
Rh       8.91262436       7.03085566      12.55730057  F        0       0.00000000       0.00000000       0.00000000       0.00000000       0.00000000       0.00000000
Rh       8.95129943       0.49580287      15.10682662  T        1      -0.00320600      -0.00198100      -0.00789300      -0.00320600      -0.00198100      -0.00789300
Rh      13.70072937       2.11299157      12.71369076  F        0       0.00000000       0.00000000       0.00000000       0.00000000       0.00000000       0.00000000
Rh      13.67912367       5.40802185      14.97021255  T        1       0.00829700       0.00598000       0.00194600       0.00829700       0.00598000       0.00194600
Rh      13.52583948       8.89374769      16.88222465  T        1       0.00493300       0.01297200       0.00703000       0.00493300       0.01297200       0.00703000
Rh      10.02037811       1.12507451      10.64020538  F        0       0.00000000       0.00000000       0.00000000       0.00000000       0.00000000       0.00000000
Rh      10.02037811       4.40365076      12.88163185  F        0       0.00000000       0.00000000       0.00000000       0.00000000       0.00000000       0.00000000
Rh      10.00297050       7.76676515      15.20141512  T        1      -0.01262500       0.01000700       0.00479800      -0.01262500       0.01000700       0.00479800
Rh      12.54052366       2.84487115      15.33428177  T        1      -0.00089900       0.00333600       0.01845600      -0.00089900       0.00333600       0.01845600
Rh      12.59297562       6.04293871      10.48381519  F        0       0.00000000       0.00000000       0.00000000       0.00000000       0.00000000       0.00000000
Rh      12.59297562       9.32151508      12.72524166  F        0       0.00000000       0.00000000       0.00000000       0.00000000       0.00000000       0.00000000
C        2.18390658       4.89110866      19.32602361  T        2      -0.02748200      -0.02781500      -0.14987800      -0.02748200      -0.02781500      -0.14987800
C        1.84803675       3.55695188      19.60904759  T        2      -0.03872400      -0.03958000      -0.15967300      -0.03872400      -0.03958000      -0.15967300
H        3.23023200       5.19064102      19.20885553  T        2       0.00133700      -0.02442600      -0.14787700       0.00133700      -0.02442600      -0.14787700
H        1.50725420       5.69957001      19.62777442  T        2      -0.03447100      -0.00443700      -0.13388500      -0.03447100      -0.00443700      -0.13388500
H        2.63570769       2.80380284      19.72484414  T        2      -0.01528100      -0.04763900      -0.14645700      -0.01528100      -0.04763900      -0.14645700
H        0.91175228       3.32547071      20.12980911  T        2      -0.05081300      -0.03373100      -0.13981900      -0.05081300      -0.03373100      -0.13981900
78
Lattice="15.075569152832031 -1.1304866704696985e-31 -9.231123877854975e-16 6.022646718159227e-16 9.835728645324707 -0.3127800524234772 -0.0 3.447165326759616e-15 28.14824104309082" Properties=species:S:1:pos:R:3:move_mask:L:1:tags:I:1:DFT_forces:R:3:forces:R:3 DFT_energy=-430.14645532 energy=-430.14645532 pbc="T T T"
Ni       4.29141998       3.38533282      10.85261440  F        0       0.00000000       0.00000000       0.00000000       0.00000000       0.00000000       0.00000000
Ni       4.29141998       6.66390896      13.09404087  F        0       0.00000000       0.00000000       0.00000000       0.00000000       0.00000000       0.00000000
Ni       4.13484744       0.31227268      15.42225286  T        1       0.00723500       0.00338500      -0.00299700       0.00723500       0.00338500      -0.00299700
Ni       3.24636483       1.74604475      13.25043106  F        0       0.00000000       0.00000000       0.00000000       0.00000000       0.00000000       0.00000000
Ni       3.30893306       5.15650450      15.34910020  T        1      -0.01243300      -0.01002100       0.00557100      -0.01243300      -0.01002100       0.00557100
Ni       3.24636483       8.30319691      10.69622421  F        0       0.00000000       0.00000000       0.00000000       0.00000000       0.00000000       0.00000000
As       6.68870568       4.00723643      16.92518938  T        1      -0.00310300       0.00023200       0.00440800      -0.00310300       0.00023200       0.00440800
As       6.46150398       7.28784513      12.18139839  F        0       0.00000000       0.00000000       0.00000000       0.00000000       0.00000000       0.00000000