98
Lattice="14.1262845993042 0.0 6.287501811981201 -8.452720186965179e-16 13.804340362548828 6.287501811981201 0.0 0.0 37.72500991821289" Properties=species:S:1:pos:R:3:move_mask:L:1:tags:I:1:DFT_forces:R:3:forces:R:3:magmoms:R:1 DFT_energy=-299.54271007 energy=-299.54271007 dipole="_JSON [[0.0, 0.0, 0.0]]" magmom=0.0 free_energy=-299.54831319 pbc="T T T"
Na      11.90436268       9.51775360      24.49505806  F        0       0.00000000       0.00000000       0.00000000       0.21532500       0.24027300       0.24347000       0.00000000
Na       4.84122038       9.51775360      24.49505806  F        0       0.00000000       0.00000000       0.00000000      -0.13955600      -0.02161100      -0.08312200       0.00000000
Na      12.81663513      11.18875599      27.63880920  F        0       0.00000000       0.00000000       0.00000000      -0.04668000       0.03568700      -0.25251200       0.00000000
Na       5.75349331      11.18875599      21.35130692  F        0       0.00000000       0.00000000       0.00000000      -0.11501000       0.06567600       0.11811700       0.00000000
Na       8.37279129      11.18875599      24.49505806  F        0       0.00000000       0.00000000       0.00000000       0.08839600       0.19969600       0.23627100       0.00000000
Na       1.30964935      11.18875599      18.20755577  F        0       0.00000000       0.00000000       0.00000000      -0.09554700      -0.10986400       0.00523100       0.00000000
Na       9.28506470       9.51775360      21.35130692  F        0       0.00000000       0.00000000       0.00000000       0.01740400      -0.24472700       0.18556900       0.00000000
Na       2.22192192       9.51775360      21.35130692  F        0       0.00000000       0.00000000       0.00000000       0.06560900      -0.10106500      -0.09895500       0.00000000
Na      10.59471321       0.00000000      19.77943087  F        0       0.00000000       0.00000000       0.00000000       0.09989800       0.00069100      -0.55144600       0.00000000
Na       3.53157115       0.00000000      19.77943087  F        0       0.00000000       0.00000000       0.00000000      -0.00642900      -0.01813600       0.10053200       0.00000000
Na      10.59471321       0.00000000      22.92318201  F        0       0.00000000       0.00000000       0.00000000      -0.09605600      -0.08804600       0.00826500       0.00000000
Na       3.53157115       0.00000000      16.63568163  F        0       0.00000000       0.00000000       0.00000000      -0.04838000      -0.15055500      -0.24533700       0.00000000
Na       8.37279129       2.61558366      21.35130692  F        0       0.00000000       0.00000000       0.00000000      -0.01943300       0.07229000      -0.15866800       0.00000000
Na       1.30964935       2.61558366      15.06380558  F        0       0.00000000       0.00000000       0.00000000      -0.10674700      -0.21352200       0.22321200       0.00000000
Na       9.28506470       4.28658628      24.49505806  F        0       0.00000000       0.00000000       0.00000000      -0.07306700       0.07219200      -0.17767300       0.00000000
Na       2.22192192       4.28658628      18.20755577  F        0       0.00000000       0.00000000       0.00000000       0.27505800       0.23328500       0.29913600       0.00000000
Na      11.90436268       4.28658628      21.35130692  F        0       0.00000000       0.00000000       0.00000000      -0.35837500      -0.07138400      -0.02516200       0.00000000
Na       4.84122038       4.28658628      21.35130692  F        0       0.00000000       0.00000000       0.00000000      -0.01523400       0.03230900      -0.09653100       0.00000000
Na      12.81663513       2.61558366      24.49505806  F        0       0.00000000       0.00000000       0.00000000       0.04138600      -0.02983100      -0.04920100       0.00000000
Na       5.75349331       2.61558366      18.20755577  F        0       0.00000000       0.00000000       0.00000000       0.14442300       0.29714900       0.10497700       0.00000000
Na      -0.00000000       6.90217018      16.63568115  F        0       0.00000000       0.00000000       0.00000000       0.23965400       0.25244600       0.03641800       0.00000000
Na       7.06314230       6.90217018      22.92318344  F        0       0.00000000       0.00000000       0.00000000      -0.02015100      -0.07971500      -0.08569200       0.00000000
Na      -0.00000000       6.90217018      19.77943230  F        0       0.00000000       0.00000000       0.00000000       0.14981100       0.07703600       0.00137900       0.00000000
Na       7.06314230       6.90217018      19.77943230  F        0       0.00000000       0.00000000       0.00000000      -0.13303600      -0.23392000      -0.40193100       0.00000000
Al      -0.00000000       0.00000000      16.63568163  F        0       0.00000000       0.00000000       0.00000000       0.10160000      -0.00608900      -0.02743700       0.00000000
Al       7.06314230       0.00000000      16.63568163  F        0       0.00000000       0.00000000       0.00000000       0.54450500       0.10811000       0.54493400       0.00000000
Al       0.00000000       0.00000000      13.49193001  F        0       0.00000000       0.00000000       0.00000000      -1.27283100      -1.43011000       0.11458500       0.00000000
Al       7.06314230       0.00000000      19.77943087  F        0       0.00000000       0.00000000       0.00000000       0.17236700       0.27369300      -0.24681900       0.00000000
Al      10.59471321       6.90217018      26.06693268  F        0       0.00000000       0.00000000       0.00000000       0.09623700       0.06999900       0.36471800       0.00000000
Al       3.53157115       6.90217018      19.77943230  F        0       0.00000000       0.00000000       0.00000000       0.04187700      -0.07788800      -0.78862900       0.00000000
Al      10.59471321       6.90217018      22.92318344  F        0       0.00000000       0.00000000       0.00000000      -1.08862700      -1.07299300      -0.00964400       0.00000000
Al       3.53157115       6.90217018      22.92318344  F        0       0.00000000       0.00000000       0.00000000      -0.11579500       0.09580200       0.10003100       0.00000000
As      12.01796436       8.32974243      27.63880920  F        0       0.00000000       0.00000000       0.00000000      -0.11821700      -0.26151900       0.03604900       0.00000000
As       4.95482206       8.32974243      21.35130692  F        0       0.00000000       0.00000000       0.00000000       0.12117900       0.12336000       0.18544100       0.00000000
As      12.70303440      12.37676811      24.49505806  F        0       0.00000000       0.00000000       0.00000000       0.64585000       0.46721600       0.47216500       0.00000000
As       5.63989162      12.37676811      24.49505806  F        0       0.00000000       0.00000000       0.00000000      -0.24986800      -0.20114400      -0.00084300       0.00000000
As       8.48639297      12.37676811      27.63880920  F        0       0.00000000       0.00000000       0.00000000       0.00535300      -0.02691100       0.06938600       0.00000000
As       1.42325068      12.37676811      21.35130692  F        0       0.00000000       0.00000000       0.00000000       0.20786900       0.72091300      -0.08897700       0.00000000
As       9.17146301       8.32974243      24.49505806  F        0       0.00000000       0.00000000       0.00000000       0.27328000       0.34976000      -0.31009800       0.00000000
As       2.10832047       8.32974243      18.20755577  F        0       0.00000000       0.00000000       0.00000000      -0.00528200      -0.25216000       0.06983100       0.00000000
As       8.48639297       1.42757213      18.20755577  F        0       0.00000000       0.00000000       0.00000000      -0.64622000      -0.61569000      -0.38599800       0.00000000
As       1.42325068       1.42757213      18.20755577  F        0       0.00000000       0.00000000       0.00000000       0.03249400       0.11655300      -0.10833500       0.00000000
As       9.17146301       5.47459793      21.35130692  F        0       0.00000000       0.00000000       0.00000000       0.70983000       0.81061800       0.33305300       0.00000000
As       2.10832047       5.47459793      21.35130692  F        0       0.00000000       0.00000000       0.00000000      -0.09074600      -0.06511700       0.27197200       0.00000000
As      12.01796436       5.47459793      24.49505806  F        0       0.00000000       0.00000000       0.00000000       0.13838700       0.16484400      -0.27560400       0.00000000
As       4.95482206       5.47459793      18.20755577  F        0       0.00000000       0.00000000       0.00000000      -0.36542000       0.21257300       0.33596100       0.00000000
As      12.70303440       1.42757213      21.35130692  F        0       0.00000000       0.00000000       0.00000000       0.58334000       0.39110200      -0.13106300       0.00000000
As       5.63989162       1.42757213      21.35130692  F        0       0.00000000       0.00000000       0.00000000      -0.01663700      -0.11763900       0.07087200       0.00000000
Na      12.07695783       9.56632933      30.76118744  T        1       0.00783100      -0.00263700      -0.00331900       0.00783100      -0.00263700      -0.00331900       0.00000000
Na       4.43425385       9.65481538      30.35562480  T        1       0.00549100      -0.01060500       0.00053800       0.00549100      -0.01060500       0.00053800       0.00000000
Na      12.76240668      11.12818938      33.79843810  T        1      -0.00154400       0.00215000       0.00282400      -0.00154400       0.00215000       0.00282400       0.00000000
Na       5.75349331      11.18875599      27.63880920  F        0       0.00000000       0.00000000       0.00000000       0.02111100       0.07974700      -0.07063700       0.00000000
Na       8.23635464      11.00313577      30.73772758  T        1       0.00118000       0.00354100       0.00426500       0.00118000       0.00354100       0.00426500       0.00000000
Na       1.30964935      11.18875599      24.49505806  F        0       0.00000000       0.00000000       0.00000000       0.09092500      -0.09066300       0.08645000       0.00000000
Na       9.28506470       9.51775360      27.63880920  F        0       0.00000000       0.00000000       0.00000000       0.11915700       0.09547000       0.00027000       0.00000000
Na       1.01931051       8.48407717      27.27760515  T        1       0.00104000      -0.00048500       0.00446400       0.00104000      -0.00048500       0.00446400       0.00000000
Na      10.59471321       0.00000000      26.06693316  F        0       0.00000000       0.00000000       0.00000000      -0.19506900       0.05345900       0.13860800       0.00000000
Na       3.52968622      13.71604159      32.54901470  T        1      -0.00542300       0.00522500      -0.00008400      -0.00542300       0.00522500      -0.00008400       0.00000000
Na      10.30238649       0.75353662      29.36944269  T        1       0.00174600      -0.00882400      -0.00206500       0.00174600      -0.00882400      -0.00206500       0.00000000
Na       3.53157115       0.00000000      22.92318201  F        0       0.00000000       0.00000000       0.00000000       0.03065200      -0.02615600       0.16195400       0.00000000
Na       8.18106449       2.72636632      27.33366106  T        1       0.01139300       0.00285000       0.00388200       0.01139300       0.00285000       0.00388200       0.00000000
Na       1.30964935       2.61558366      21.35130692  F        0       0.00000000       0.00000000       0.00000000       0.27253800       0.35045800      -0.06763500       0.00000000
Na       8.62140579       5.19309619      31.09727210  T        1       0.00073300      -0.00118500      -0.00375300       0.00073300      -0.00118500      -0.00375300       0.00000000
Na       2.27981614       4.20500120      24.51251923  T        1      -0.00768300       0.00169000      -0.00198200      -0.00768300       0.00169000      -0.00198200       0.00000000
Na      11.90436268       4.28658628      27.63880920  F        0       0.00000000       0.00000000       0.00000000      -0.06265800       0.06293000       0.09082300       0.00000000
Na       4.62873030       3.97924865      27.64529757  T        1      -0.00109200       0.01681800       0.00190400      -0.00109200       0.01681800       0.00190400       0.00000000
Na      13.14224110       2.79139225      30.69610568  T        1       0.00996700      -0.00300000       0.00309200       0.00996700      -0.00300000       0.00309200       0.00000000
Na       5.75349331       2.61558366      24.49505806  F        0       0.00000000       0.00000000       0.00000000      -0.03967600       0.01371200      -0.10314500       0.00000000
Na      -0.00000000       6.90217018      22.92318344  F        0       0.00000000       0.00000000       0.00000000      -0.01530000      -0.08599500       0.43216700       0.00000000
Na       7.17657597       7.23366024      29.16009152  T        1      -0.00121700      -0.00301000       0.00177100      -0.00121700      -0.00301000       0.00177100       0.00000000
Na      13.38748112       5.73576153      33.51623387  T        1      -0.00616600       0.00172400      -0.00738400      -0.00616600       0.00172400      -0.00738400       0.00000000
Na       7.06314230       6.90217018      26.06693268  F        0       0.00000000       0.00000000       0.00000000      -0.13212300      -0.17445700       0.02480100       0.00000000
Al       0.35134232       0.21299735      22.76040371  T        1       0.01616400      -0.01970800      -0.00049000       0.01616400      -0.01970800      -0.00049000       0.00000000
Al       7.06314230       0.00000000      22.92318201  F        0       0.00000000       0.00000000       0.00000000      -0.07743200      -0.08153400      -0.20051200       0.00000000
Al       0.00000000       0.00000000      19.77943230  F        0       0.00000000       0.00000000       0.00000000      -0.01405400      -0.30039700      -0.09247400       0.00000000
Al       6.96184998       0.03742079      25.99961644  T        1       0.00861400       0.00604200      -0.03192500       0.00861400       0.00604200      -0.03192500       0.00000000
Al      10.98594798       7.26691849      32.19591544  T        1      -0.02873400       0.00752300      -0.01399600      -0.02873400       0.00752300      -0.01399600       0.00000000
Al       3.53157115       6.90217018      26.06693268  F        0       0.00000000       0.00000000       0.00000000      -0.16755200      -0.00044600      -0.19329000       0.00000000
Al      10.59471321       6.90217018      29.21068382  F        0       0.00000000       0.00000000       0.00000000      -0.00418700      -0.10311800      -0.00804300       0.00000000
Al       3.69576643       6.70926520      29.09403227  T        1       0.00796300      -0.01660700       0.01065400       0.00796300      -0.01660700       0.01065400       0.00000000
As      12.19856727       8.36071165      33.86764644  T        1       0.02066800       0.00067000       0.01434400       0.02066800       0.00067000       0.01434400       0.00000000
As       4.95482206       8.32974243      27.63880920  F        0       0.00000000       0.00000000       0.00000000       0.06455300       0.26437800       0.13162800       0.00000000
As      12.70303440      12.37676811      30.78256035  F        0       0.00000000       0.00000000       0.00000000      -0.03263700       0.28677600      -0.08332100       0.00000000
As       5.66180110      12.34135166      30.77130842  T        1      -0.00986800      -0.00554300       0.00374300      -0.00986800      -0.00554300       0.00374300       0.00000000
As       7.72211352      13.59169021      34.62502930  T        1       0.00162300      -0.00217900       0.01304300       0.00162300      -0.00217900       0.01304300       0.00000000
As       1.34562381      12.30333224      27.60839759  T        1      -0.00613500       0.01315000       0.00051000      -0.00613500       0.01315000       0.00051000       0.00000000
As       9.21764871       8.27936448      30.80342525  T        1       0.02100300      -0.02346600       0.01686500       0.02100300      -0.02346600       0.01686500       0.00000000
As       2.10832047       8.32974243      24.49505806  F        0       0.00000000       0.00000000       0.00000000       0.21301600      -0.12873500      -0.18823700       0.00000000
As       8.48639297       1.42757213      24.49505806  F        0       0.00000000       0.00000000       0.00000000       0.03769500      -0.13471800      -0.12965400       0.00000000
As       1.43350498       1.32612807      24.56740898  T        1      -0.00850600       0.00796800      -0.01239100      -0.00850600       0.00796800      -0.01239100       0.00000000
As       9.17146301       5.47459793      27.63880920  F        0       0.00000000       0.00000000       0.00000000       0.08277000       0.15835600      -0.37318300       0.00000000
As       2.14820242       5.52494409      27.65402331  T        1       0.00882200      -0.00071200       0.00491800       0.00882200      -0.00071200       0.00491800       0.00000000
As      11.62776813       5.23523019      30.88202075  T        1       0.01570000      -0.00423300       0.00410000       0.01570000      -0.00423300       0.00410000       0.00000000
As       4.95482206       5.47459793      24.49505806  F        0       0.00000000       0.00000000       0.00000000       0.12036800      -0.05264400       0.14924500       0.00000000
As      12.70303440       1.42757213      27.63880920  F        0       0.00000000       0.00000000       0.00000000      -0.12332200      -0.16340700       0.32941400       0.00000000
As       5.71162954       1.25432491      27.79400205  T        1      -0.00025800       0.01175300       0.01853200      -0.00025800       0.01175300       0.01853200       0.00000000
C        5.21148372       5.60885954      29.86218896  T        2      -0.01886100      -0.00662800      -0.02045100      -0.01886100      -0.00662800      -0.02045100       0.00000000
O        6.10412104       5.38463316      30.65745368  T        2      -0.00101500       0.01106500       0.02126600      -0.00101500       0.01106500       0.02126600       0.00000000
98
Lattice="14.1262845993042 0.0 6.287501811981201 -8.452720186965179e-16 13.804340362548828 6.287501811981201 0.0 0.0 37.72500991821289" Properties=species:S:1:pos:R:3:move_mask:L:1:tags:I:1:DFT_forces:R:3:forces:R:3 DFT_energy=-299.22901228 energy=-299.22901228 pbc="T T T"
Na      11.90436268       9.51775360      24.49505806  F        0       0.00000000       0.00000000       0.00000000       0.00000000       0.00000000       0.00000000
Na       4.84122038       9.51775360      24.49505806  F        0       0.00000000       0.00000000       0.00000000       0.00000000       0.00000000       0.00000000
Na      12.81663513      11.18875599      27.63880920  F        0       0.00000000       0.00000000       0.00000000       0.00000000       0.00000000       0.00000000
Na       5.75349331      11.18875599      21.35130692  F        0       0.00000000       0.00000000       0.00000000       0.00000000       0.00000000       0.00000000
Na       8.37279129      11.18875599      24.49505806  F        0       0.00000000       0.00000000       0.00000000       0.00000000       0.00000000       0.00000000
Na       1.30964935      11.18875599      18.20755577  F        0       0.00000000       0.00000000       0.00000000       0.00000000       0.00000000       0.00000000
Na       9.28506470       9.51775360      21.35130692  F        0       0.00000000       0.00000000       0.00000000       0.00000000       0.00000000       0.00000000
Na       2.22192192       9.51775360      21.35130692  F        0       0.00000000       0.00000000       0.00000000       0.00000000       0.00000000       0.00000000
Na      10.59471321       0.00000000      19.77943087  F        0       0.00000000       0.00000000       0.00000000       0.00000000       0.00000000       0.00000000
Na       3.53157115       0.00000000      19.77943087  F        0       0.00000000       0.00000000       0.00000000       0.00000000       0.00000000       0.00000000
Na      10.59471321       0.00000000      22.92318201  F        0       0.00000000       0.00000000       0.00000000       0.00000000       0.00000000       0.00000000
Na       3.53157115       0.00000000      16.63568163  F        0       0.00000000       0.00000000       0.00000000       0.00000000       0.00000000       0.00000000
Na       8.37279129       2.61558366      21.35130692  F        0       0.00000000       0.00000000       0.00000000       0.00000000       0.00000000       0.00000000
Na       1.30964935       2.61558366      15.06380558  F        0       0.00000000       0.00000000       0.00000000       0.00000000       0.00000000       0.00000000
Na       9.28506470       4.28658628      24.49505806  F        0       0.00000000       0.00000000       0.00000000       0.00000000       0.00000000       0.00000000
Na       2.22192192       4.28658628      18.20755577  F        0       0.00000000       0.00000000       0.00000000       0.00000000       0.00000000       0.00000000
Na      11.90436268       4.28658628      21.35130692  F        0       0.00000000       0.00000000       0.00000000       0.00000000       0.00000000       0.00000000
Na       4.84122038       4.28658628      21.35130692  F        0       0.00000000       0.00000000       0.00000000       0.00000000       0.00000000       0.00000000
Na      12.81663513       2.61558366      24.49505806  F        0       0.00000000       0.00000000       0.00000000       0.00000000       0.00000000       0.00000000
Na       5.75349331       2.61558366      18.20755577  F        0       0.00000000       0.00000000       0.00000000       0.00000000       0.00000000       0.00000000
Na      -0.00000000       6.90217018      16.63568115  F        0       0.00000000       0.00000000       0.00000000       0.00000000       0.00000000       0.00000000
Na       7.06314230       6.90217018      22.92318344  F        0       0.00000000       0.00000000       0.00000000       0.00000000       0.00000000       0.00000000
Na      -0.00000000       6.90217018      19.77943230  F        0       0.00000000       0.00000000       0.00000000       0.00000000       0.00000000       0.00000000
Na       7.06314230       6.90217018      19.77943230  F        0       0.00000000       0.00000000       0.00000000       0.00000000       0.00000000       0.00000000
Al      -0.00000000       0.00000000      16.63568163  F        0       0.00000000       0.00000000       0.00000000       0.00000000       0.00000000       0.00000000
Al       7.06314230       0.00000000      16.63568163  F        0       0.00000000       0.00000000       0.00000000       0.00000000       0.00000000       0.00000000
Al       0.00000000       0.00000000      13.49193001  F        0       0.00000000       0.00000000       0.00000000       0.00000000       0.00000000       0.00000000
Al       7.06314230       0.00000000      19.77943087  F        0       0.00000000       0.00000000       0.00000000       0.00000000       0.00000000       0.00000000
Al      10.59471321       6.90217018      26.06693268  F        0       0.00000000       0.00000000       0.00000000       0.00000000       0.00000000       0.00000000
Al       3.53157115       6.90217018      19.77943230  F        0       0.00000000       0.00000000       0.00000000       0.00000000       0.00000000       0.00000000
Al      10.59471321       6.90217018      22.92318344  F        0       0.00000000       0.00000000       0.00000000       0.00000000       0.00000000       0.00000000
Al       3.53157115       6.90217018      22.92318344  F        0       0.00000000       0.00000000       0.00000000       0.00000000       0.00000000       0.00000000
As      12.01796436       8.32974243      27.63880920  F        0       0.00000000       0.00000000       0.00000000       0.00000000       0.00000000       0.00000000
As       4.95482206       8.32974243      21.35130692  F        0       0.00000000       0.00000000       0.00000000       0.00000000       0.00000000       0.00000000
As      12.70303440      12.37676811      24.49505806  F        0       0.00000000       0.00000000       0.00000000       0.00000000       0.00000000       0.00000000
As       5.63989162      12.37676811      24.49505806  F        0       0.00000000       0.00000000       0.00000000       0.00000000       0.00000000       0.00000000
As       8.48639297      12.37676811      27.63880920  F        0       0.00000000       0.00000000       0.00000000       0.00000000       0.00000000       0.00000000
As       1.42325068      12.37676811      21.35130692  F        0       0.00000000       0.00000000       0.00000000       0.00000000       0.00000000       0.00000000
As       9.17146301       8.32974243      24.49505806  F        0       0.00000000       0.00000000       0.00000000       0.00000000       0.00000000       0.00000000
As       2.10832047       8.32974243      18.20755577  F        0       0.00000000       0.00000000       0.00000000       0.00000000       0.00000000       0.00000000
As       8.48639297       1.42757213      18.20755577  F        0       0.00000000       0.00000000       0.00000000       0.00000000       0.00000000       0.00000000
As       1.42325068       1.42757213      18.20755577  F        0       0.00000000       0.00000000       0.00000000       0.00000000       0.00000000       0.00000000
As       9.17146301       5.47459793      21.35130692  F        0       0.00000000       0.00000000       0.00000000       0.00000000       0.00000000       0.00000000
As       2.10832047       5.47459793      21.35130692  F        0       0.00000000       0.00000000       0.00000000       0.00000000       0.00000000       0.00000000
As      12.01796436       5.47459793      24.49505806  F        0       0.00000000       0.00000000       0.00000000       0.00000000       0.00000000       0.00000000
As       4.95482206       5.47459793      18.20755577  F        0       0.00000000       0.00000000       0.00000000       0.00000000       0.00000000       0.00000000
As      12.70303440       1.42757213      21.35130692  F        0       0.00000000       0.00000000       0.00000000       0.00000000       0.00000000       0.00000000
As       5.63989162       1.42757213      21.35130692  F        0       0.00000000       0.00000000       0.00000000       0.00000000       0.00000000       0.00000000
Na      12.10379657       9.55190209      30.75458882  T        1       0.01032900       0.01107100      -0.00100300       0.01032900       0.01107100      -0.00100300
Na       4.42261168       9.66713353      30.37913695  T        1       0.00355700      -0.00455200      -0.00482000       0.00355700      -0.00455200      -0.00482000
Na      12.74195420      11.15500383      33.80036358  T        1       0.00215500       0.00354700      -0.00337800       0.00215500       0.00354700      -0.00337800
Na       5.75349331      11.18875599      27.63880920  F        0       0.00000000       0.00000000       0.00000000       0.00000000       0.00000000       0.00000000
Na       8.22947409      10.96470551      30.75503430  T        1      -0.01069800       0.00864200      -0.00002300      -0.01069800       0.00864200      -0.00002300
Na       1.30964935      11.18875599      24.49505806  F        0       0.00000000       0.00000000       0.00000000       0.00000000       0.00000000       0.00000000
Na       9.28506470       9.51775360      27.63880920  F        0       0.00000000       0.00000000       0.00000000       0.00000000       0.00000000       0.00000000
Na       1.05623956       8.56915821      27.30545517  T        1       0.01002600       0.00621200       0.00104400       0.01002600       0.00621200       0.00104400
Na      10.59471321       0.00000000      26.06693316  F        0       0.00000000       0.00000000       0.00000000       0.00000000       0.00000000       0.00000000
Na       3.52450482      13.71849142      32.54941871  T        1      -0.00194100      -0.00030300      -0.00262000      -0.00194100      -0.00030300      -0.00262000
Na      10.30879904       0.70656481      29.35958394  T        1      -0.00390800      -0.00732700      -0.00323000      -0.00390800      -0.00732700      -0.00323000
Na       3.53157115       0.00000000      22.92318201  F        0       0.00000000       0.00000000       0.00000000       0.00000000       0.00000000       0.00000000
Na       8.20271987       2.71369982      27.33161968  T        1      -0.00568200       0.00000400       0.00073700      -0.00568200       0.00000400       0.00073700
Na       1.30964935       2.61558366      21.35130692  F        0       0.00000000       0.00000000       0.00000000       0.00000000       0.00000000       0.00000000
Na       8.81210231       5.08744574      31.06980373  T        1      -0.01722700       0.00214900       0.00593400      -0.01722700       0.00214900       0.00593400
Na       2.24713797       4.24004305      24.46468892  T        1      -0.00104500      -0.00130900       0.00584300      -0.00104500      -0.00130900       0.00584300
Na      11.90436268       4.28658628      27.63880920  F        0       0.00000000       0.00000000       0.00000000       0.00000000       0.00000000       0.00000000
Na       4.52629911       3.89229561      27.63364240  T        1      -0.01986300       0.01323400       0.02381500      -0.01986300       0.01323400       0.02381500