85
Lattice="8.3699951171875 0.0 5.125143842138371e-16 -1.5614611925500455e-15 25.500595092773438 4.18499755859375 0.0 0.0 29.294981002807617" Properties=species:S:1:pos:R:3:move_mask:L:1:tags:I:1:DFT_forces:R:3:forces:R:3:magmoms:R:1 DFT_energy=-462.10630312 energy=-462.10630312 dipole="_JSON [[0.0, 0.0, 0.0]]" magmom=0.0 free_energy=-462.05892129 pbc="T T T"
K        0.00000000       0.00000000      14.54286575  F        0       0.00000000       0.00000000       0.00000000      -0.00661700      -0.04990900      -0.04629400       0.00000000
K       -0.00000000      12.75029755      14.54286575  F        0       0.00000000       0.00000000       0.00000000      -0.00073200       0.04952900      -0.15849100       0.00000000
K        2.09249878      19.12544632      16.63536453  F        0       0.00000000       0.00000000       0.00000000       0.00023200       0.00737000      -0.12855500       0.00000000
K        2.09249878       6.37514877      12.45036697  F        0       0.00000000       0.00000000       0.00000000       0.00045400      -0.00806900      -0.14655000       0.00000000
As      -0.00000000      21.03938103      14.54286575  F        0       0.00000000       0.00000000       0.00000000       0.00070800       0.99956800       0.26813500       0.00000000
As      -0.00000000       8.28908443      14.54286575  F        0       0.00000000       0.00000000       0.00000000      -0.00011000       0.16830100      -0.34366600       0.00000000
As       2.09249878      23.58666039      16.63536453  F        0       0.00000000       0.00000000       0.00000000      -0.00059000      -0.23261900      -0.52953600       0.00000000
As       2.09249878      10.83636284      12.45036697  F        0       0.00000000       0.00000000       0.00000000       0.00024600      -0.95604400       0.16011300       0.00000000
As       2.09249878      14.66423321      16.63536453  F        0       0.00000000       0.00000000       0.00000000      -0.00045100       0.13384600      -0.31663300       0.00000000
As       2.09249878       1.91393507      12.45036697  F        0       0.00000000       0.00000000       0.00000000       0.00091500       0.95687300       0.09403800       0.00000000
As      -0.00000000      17.21151161      14.54286575  F        0       0.00000000       0.00000000       0.00000000      -0.00065800      -1.01405200       0.20389400       0.00000000
As      -0.00000000       4.46121359      14.54286575  F        0       0.00000000       0.00000000       0.00000000       0.02349400      -0.07281100      -0.38893300       0.00000000
Ru       2.09249878      22.31302071      14.54286575  F        0       0.00000000       0.00000000       0.00000000       0.00037700      -0.34705300       0.72440600       0.00000000
Ru       2.09249878       9.56272316      14.54286575  F        0       0.00000000       0.00000000       0.00000000       0.00098700       0.35063200      -0.46072100       0.00000000
Ru      -0.00000000      22.31302071      16.63536453  F        0       0.00000000       0.00000000       0.00000000       0.00131800      -0.50671300      -0.35007800       0.00000000
Ru      -0.00000000       9.56272316      12.45036697  F        0       0.00000000       0.00000000       0.00000000       0.00446400       0.47392700       0.80103200       0.00000000
Ru      -0.00000000      15.93787193      16.63536453  F        0       0.00000000       0.00000000       0.00000000       0.00066600       0.34774300      -0.45809200       0.00000000
Ru      -0.00000000       3.18757439      12.45036697  F        0       0.00000000       0.00000000       0.00000000       0.00760700      -0.46128700       0.88361700       0.00000000
Ru       2.09249878      15.93787193      14.54286575  F        0       0.00000000       0.00000000       0.00000000       0.00032100       0.49814400       0.79113100       0.00000000
Ru       2.09249878       3.18757439      14.54286575  F        0       0.00000000       0.00000000       0.00000000      -0.00243300      -0.29180500      -0.45219900       0.00000000
K        8.31152769       0.00981635      18.77136766  T        1       0.00457500       0.01031700      -0.00778700       0.00457500       0.01031700      -0.00778700       0.00000000
K        8.36706484      12.67820122      19.03831714  T        1       0.00210100       0.00036300       0.00271100       0.00210100       0.00036300       0.00271100       0.00000000
K        2.08953364      19.10920259      21.04895120  T        1       0.00087400       0.00508900       0.00249100       0.00087400       0.00508900       0.00249100       0.00000000
K        2.08204548       6.41129892      16.80523632  T        1       0.00786200       0.00139600       0.00402000       0.00786200       0.00139600       0.00402000       0.00000000
As      -0.00000000      21.03938103      18.72786331  F        0       0.00000000       0.00000000       0.00000000       0.00265200      -0.05390800      -0.22486800       0.00000000
As      -0.00086503       8.46955810      18.79439084  T        1       0.00006900       0.00592800       0.00510300       0.00006900       0.00592800       0.00510300       0.00000000
As       2.08922890      23.38778692      20.91689942  T        1      -0.00323500       0.00427100       0.00154500      -0.00323500       0.00427100       0.00154500       0.00000000
As       2.09249878      10.83636284      16.63536453  F        0       0.00000000       0.00000000       0.00000000      -0.00177500       0.07734500      -0.11611500       0.00000000
As       2.09178061      14.84187386      20.88750552  T        1      -0.00017600      -0.00162100       0.00342200      -0.00017600      -0.00162100       0.00342200       0.00000000
As       2.09249878       1.91393507      16.63536453  F        0       0.00000000       0.00000000       0.00000000       0.00218600      -0.42075500      -0.12962200       0.00000000
As      -0.00000000      17.21151161      18.72786331  F        0       0.00000000       0.00000000       0.00000000      -0.00119400       0.12662200      -0.14471800       0.00000000
As       0.02784904       4.36680851      18.74266908  T        1       0.01447200       0.00723200      -0.04596900       0.01447200       0.00723200      -0.04596900       0.00000000
Ru       2.09249878      22.31302071      18.72786331  F        0       0.00000000       0.00000000       0.00000000      -0.00792900       0.09894900       0.21108300       0.00000000
Ru       2.09055971       9.59491031      18.65702234  T        1       0.00294700       0.00654700       0.00255300       0.00294700       0.00654700       0.00255300       0.00000000
Ru       8.36841805      22.26014924      20.76569501  T        1      -0.00181900      -0.00259400      -0.00520100      -0.00181900      -0.00259400      -0.00520100       0.00000000
Ru      -0.00000000       9.56272316      16.63536453  F        0       0.00000000       0.00000000       0.00000000      -0.00520900      -0.05767600       0.05834500       0.00000000
Ru      -0.00073512      15.97840613      20.75455839  T        1      -0.00083400      -0.00616200       0.00037100      -0.00083400      -0.00616200       0.00037100       0.00000000
Ru      -0.00000000       3.18757439      16.63536453  F        0       0.00000000       0.00000000       0.00000000      -0.34498200       0.23091300       0.15655300       0.00000000
Ru       2.09249878      15.93787193      18.72786331  F        0       0.00000000       0.00000000       0.00000000      -0.00151800      -0.12633200       0.08543900       0.00000000
Ru       2.09081790       3.20000751      18.63920946  T        1       0.00234300      -0.01046800       0.02357800       0.00234300      -0.01046800       0.02357800       0.00000000
K        4.18499756       0.00000000      14.54286575  F        0       0.00000000       0.00000000       0.00000000       0.00644100      -0.05044300      -0.04719700       0.00000000
K        4.18499756      12.75029755      14.54286575  F        0       0.00000000       0.00000000       0.00000000       0.00115100       0.04932100      -0.15847800       0.00000000
K        6.27749634      19.12544632      16.63536453  F        0       0.00000000       0.00000000       0.00000000       0.00022600       0.00716100      -0.12810200       0.00000000
K        6.27749634       6.37514877      12.45036697  F        0       0.00000000       0.00000000       0.00000000       0.00006000      -0.00786100      -0.15127000       0.00000000
As       4.18499756      21.03938103      14.54286575  F        0       0.00000000       0.00000000       0.00000000      -0.00055000       0.99940600       0.26788400       0.00000000
As       4.18499756       8.28908443      14.54286575  F        0       0.00000000       0.00000000       0.00000000      -0.00288600       0.16658200      -0.34113500       0.00000000
As       6.27749634      23.58666039      16.63536453  F        0       0.00000000       0.00000000       0.00000000      -0.00024400      -0.23168900      -0.53180800       0.00000000
As       6.27749634      10.83636284      12.45036697  F        0       0.00000000       0.00000000       0.00000000       0.00015700      -0.93377800       0.15569300       0.00000000
As       6.27749634      14.66423321      16.63536453  F        0       0.00000000       0.00000000       0.00000000      -0.00011300       0.13116900      -0.31743200       0.00000000
As       6.27749634       1.91393507      12.45036697  F        0       0.00000000       0.00000000       0.00000000      -0.00028100       1.00663100       0.14786900       0.00000000
As       4.18499756      17.21151161      14.54286575  F        0       0.00000000       0.00000000       0.00000000       0.00102700      -1.01399300       0.20371200       0.00000000
As       4.18499756       4.46121359      14.54286575  F        0       0.00000000       0.00000000       0.00000000      -0.02534000      -0.07063000      -0.38844600       0.00000000
Ru       6.27749634      22.31302071      14.54286575  F        0       0.00000000       0.00000000       0.00000000       0.00035100      -0.34914700       0.72272800       0.00000000
Ru       6.27749634       9.56272316      14.54286575  F        0       0.00000000       0.00000000       0.00000000      -0.00009200       0.35749000      -0.45787100       0.00000000
Ru       4.18499756      22.31302071      16.63536453  F        0       0.00000000       0.00000000       0.00000000      -0.00050400      -0.50701600      -0.35010700       0.00000000
Ru       4.18499756       9.56272316      12.45036697  F        0       0.00000000       0.00000000       0.00000000      -0.00401300       0.47349300       0.80102000       0.00000000
Ru       4.18499756      15.93787193      16.63536453  F        0       0.00000000       0.00000000       0.00000000      -0.00019200       0.34760900      -0.45799800       0.00000000
Ru       4.18499756       3.18757439      12.45036697  F        0       0.00000000       0.00000000       0.00000000      -0.00581900      -0.46261000       0.88299100       0.00000000
Ru       6.27749634      15.93787193      14.54286575  F        0       0.00000000       0.00000000       0.00000000       0.00016400       0.49927400       0.79067100       0.00000000
Ru       6.27749634       3.18757439      14.54286575  F        0       0.00000000       0.00000000       0.00000000       0.00485500      -0.30315200      -0.40307800       0.00000000
K        4.20217372       0.01179945      18.76886863  T        1       0.01158200       0.00169400      -0.01491600       0.01158200       0.00169400      -0.01491600       0.00000000
K        4.18162288      12.67784250      19.03768636  T        1       0.00120300       0.00098800       0.00297300       0.00120300       0.00098800       0.00297300       0.00000000
K        6.27477164      19.10889368      21.05325820  T        1       0.00100300       0.00566600       0.00053800       0.00100300       0.00566600       0.00053800       0.00000000
K        6.27583248       6.43615085      16.79428364  T        1      -0.00005800       0.00227300       0.00912200      -0.00005800       0.00227300       0.00912200       0.00000000
As       4.18499756      21.03938103      18.72786331  F        0       0.00000000       0.00000000       0.00000000      -0.00853300      -0.05468000      -0.22589400       0.00000000
As       4.18323395       8.47299022      18.79628437  T        1       0.00175400       0.00034800      -0.00059000       0.00175400       0.00034800      -0.00059000       0.00000000
As       6.27372174      23.38076004      20.91383437  T        1       0.00307200       0.00506000      -0.00167600       0.00307200       0.00506000      -0.00167600       0.00000000
As       6.27749634      10.83636284      16.63536453  F        0       0.00000000       0.00000000       0.00000000      -0.00143300       0.07586400      -0.11154100       0.00000000
As       6.27674986      14.84110406      20.88669651  T        1       0.00021900       0.00004800       0.00855400       0.00021900       0.00004800       0.00855400       0.00000000
As       6.27749634       1.91393507      16.63536453  F        0       0.00000000       0.00000000       0.00000000      -0.01481400      -0.28502400      -0.24269200       0.00000000
As       4.18499756      17.21151161      18.72786331  F        0       0.00000000       0.00000000       0.00000000      -0.00051100       0.12647000      -0.14404300       0.00000000
As       4.14422627       4.38643162      18.72758673  T        1      -0.00057200      -0.00843200      -0.01982300      -0.00057200      -0.00843200      -0.01982300       0.00000000
Ru       6.27749634      22.31302071      18.72786331  F        0       0.00000000       0.00000000       0.00000000      -0.00859800       0.08439200       0.19474900       0.00000000
Ru       6.27710351       9.59452785      18.65700384  T        1      -0.00057500       0.00633700       0.00169200      -0.00057500       0.00633700       0.00169200       0.00000000
Ru       4.18081737      22.25978004      20.76584770  T        1       0.00212100      -0.00548800      -0.00590400       0.00212100      -0.00548800      -0.00590400       0.00000000
Ru       4.18499756       9.56272316      16.63536453  F        0       0.00000000       0.00000000       0.00000000      -0.00243200      -0.05716100       0.06478000       0.00000000
Ru       4.18458554      15.97828274      20.75455013  T        1       0.00034900      -0.00524500       0.00020700       0.00034900      -0.00524500       0.00020700       0.00000000
Ru       4.18499756       3.18757439      16.63536453  F        0       0.00000000       0.00000000       0.00000000       0.30455800       0.22304600       0.09305300       0.00000000
Ru       6.27749634      15.93787193      18.72786331  F        0       0.00000000       0.00000000       0.00000000      -0.00194600      -0.12656000       0.08345700       0.00000000
Ru       6.26600586       3.22469283      18.76065945  T        1       0.00544100       0.00723600       0.03222900       0.00544100       0.00723600       0.03222900       0.00000000
C        6.23985239       3.25320194      20.97489487  T        2       0.00765600      -0.03911100      -0.00224600       0.00765600      -0.03911100      -0.00224600       0.00000000
C        6.25226646       2.00104463      20.27587013  T        2       0.01022400      -0.02963700       0.01439700       0.01022400      -0.02963700       0.01439700       0.00000000
H        7.15685966       3.58817506      21.47670462  T        2      -0.00761500      -0.00513000       0.00049900      -0.00761500      -0.00513000       0.00049900       0.00000000
H        5.31183907       3.57877681      21.46344873  T        2       0.01841900      -0.00618500      -0.01471600       0.01841900      -0.00618500      -0.01471600       0.00000000
O        6.25335814       0.75579447      20.45697584  T        2       0.00347800       0.03438900       0.00859500       0.00347800       0.03438900       0.00859500       0.00000000
85
Lattice="8.3699951171875 0.0 5.125143842138371e-16 -1.5614611925500455e-15 25.500595092773438 4.18499755859375 0.0 0.0 29.294981002807617" Properties=species:S:1:pos:R:3:move_mask:L:1:tags:I:1:DFT_forces:R:3:forces:R:3 DFT_energy=-460.68589702 energy=-460.68589702 pbc="T T T"
K        0.00000000       0.00000000      14.54286575  F        0       0.00000000       0.00000000       0.00000000       0.00000000       0.00000000       0.00000000
K       -0.00000000      12.75029755      14.54286575  F        0       0.00000000       0.00000000       0.00000000       0.00000000       0.00000000       0.00000000
K        2.09249878      19.12544632      16.63536453  F        0       0.00000000       0.00000000       0.00000000       0.00000000       0.00000000       0.00000000
K        2.09249878       6.37514877      12.45036697  F        0       0.00000000       0.00000000       0.00000000       0.00000000       0.00000000       0.00000000
As      -0.00000000      21.03938103      14.54286575  F        0       0.00000000       0.00000000       0.00000000       0.00000000       0.00000000       0.00000000
As      -0.00000000       8.28908443      14.54286575  F        0       0.00000000       0.00000000       0.00000000       0.00000000       0.00000000       0.00000000
As       2.09249878      23.58666039      16.63536453  F        0       0.00000000       0.00000000       0.00000000       0.00000000       0.00000000       0.00000000
As       2.09249878      10.83636284      12.45036697  F        0       0.00000000       0.00000000       0.00000000       0.00000000       0.00000000       0.00000000
As       2.09249878      14.66423321      16.63536453  F        0       0.00000000       0.00000000       0.00000000       0.00000000       0.00000000       0.00000000
As       2.09249878       1.91393507      12.45036697  F        0       0.00000000       0.00000000       0.00000000       0.00000000       0.00000000       0.00000000
As      -0.00000000      17.21151161      14.54286575  F        0       0.00000000       0.00000000       0.00000000       0.00000000       0.00000000       0.00000000
As      -0.00000000       4.46121359      14.54286575  F        0       0.00000000       0.00000000       0.00000000       0.00000000       0.00000000       0.00000000
Ru       2.09249878      22.31302071      14.54286575  F        0       0.00000000       0.00000000       0.00000000       0.00000000       0.00000000       0.00000000
Ru       2.09249878       9.56272316      14.54286575  F        0       0.00000000       0.00000000       0.00000000       0.00000000       0.00000000       0.00000000
Ru      -0.00000000      22.31302071      16.63536453  F        0       0.00000000       0.00000000       0.00000000       0.00000000       0.00000000       0.00000000
Ru      -0.00000000       9.56272316      12.45036697  F        0       0.00000000       0.00000000       0.00000000       0.00000000       0.00000000       0.00000000
Ru      -0.00000000      15.93787193      16.63536453  F        0       0.00000000       0.00000000       0.00000000       0.00000000       0.00000000       0.00000000
Ru      -0.00000000       3.18757439      12.45036697  F        0       0.00000000       0.00000000       0.00000000       0.00000000       0.00000000       0.00000000
Ru       2.09249878      15.93787193      14.54286575  F        0       0.00000000       0.00000000       0.00000000       0.00000000       0.00000000       0.00000000
Ru       2.09249878       3.18757439      14.54286575  F        0       0.00000000       0.00000000       0.00000000       0.00000000       0.00000000       0.00000000
K        8.31466317       0.03553464      18.82366093  T        1      -0.03100900      -0.02358000       0.07517300      -0.03100900      -0.02358000       0.07517300
K        8.37129307      12.68244532      19.03859316  T        1      -0.00059400       0.00252000       0.00294600      -0.00059400       0.00252000       0.00294600
K        2.09262327      19.11740592      21.04894966  T        1       0.00015900       0.00241500       0.00314500       0.00015900       0.00241500       0.00314500
K        2.08492737       6.36568362      16.88424958  T        1       0.00099400      -0.01163300       0.01906500       0.00099400      -0.01163300       0.01906500
As      -0.00000000      21.03938103      18.72786331  F        0       0.00000000       0.00000000       0.00000000       0.00000000       0.00000000       0.00000000
As       8.36994754       8.48730972      18.80793582  T        1      -0.00097100      -0.01168300      -0.00325000      -0.00097100      -0.01168300      -0.00325000
As       2.09298454      23.39828269      20.91385495  T        1      -0.00119200      -0.00082000       0.00141200      -0.00119200      -0.00082000       0.00141200
As       2.09249878      10.83636284      16.63536453  F        0       0.00000000       0.00000000       0.00000000       0.00000000       0.00000000       0.00000000
As       2.09269826      14.84515715      20.89061722  T        1      -0.00050500      -0.00192300      -0.00101900      -0.00050500      -0.00192300      -0.00101900
As       2.09249878       1.91393507      16.63536453  F        0       0.00000000       0.00000000       0.00000000       0.00000000       0.00000000       0.00000000
As      -0.00000000      17.21151161      18.72786331  F        0       0.00000000       0.00000000       0.00000000       0.00000000       0.00000000       0.00000000
As      -0.03813253       4.18847713      18.85151610  T        1      -0.06783200      -0.07852900       0.03739900      -0.06783200      -0.07852900       0.03739900
Ru       2.09249878      22.31302071      18.72786331  F        0       0.00000000       0.00000000       0.00000000       0.00000000       0.00000000       0.00000000
Ru       2.09314196       9.60565507      18.66215498  T        1       0.00050100       0.00539500      -0.00143400       0.00050100       0.00539500      -0.00143400
Ru       8.37216115      22.26690002      20.76411093  T        1       0.00106900       0.00038100      -0.00143000       0.00106900       0.00038100      -0.00143000
Ru      -0.00000000       9.56272316      16.63536453  F        0       0.00000000       0.00000000       0.00000000       0.00000000       0.00000000       0.00000000
Ru       8.36987066      15.98091506      20.75536494  T        1       0.00061400      -0.00166600      -0.00206100       0.00061400      -0.00166600      -0.00206100
Ru      -0.00000000       3.18757439      16.63536453  F        0       0.00000000       0.00000000       0.00000000       0.00000000       0.00000000       0.00000000
Ru       2.09249878      15.93787193      18.72786331  F        0       0.00000000       0.00000000       0.00000000       0.00000000       0.00000000       0.00000000
Ru       2.07970690       3.11143709      18.67017231  T        1      -0.02452100       0.01009500       0.01023200      -0.02452100       0.01009500       0.01023200
K        4.18499756       0.00000000      14.54286575  F        0       0.00000000       0.00000000       0.00000000       0.00000000       0.00000000       0.00000000
K        4.18499756      12.75029755      14.54286575  F        0       0.00000000       0.00000000       0.00000000       0.00000000       0.00000000       0.00000000
K        6.27749634      19.12544632      16.63536453  F        0       0.00000000       0.00000000       0.00000000       0.00000000       0.00000000       0.00000000
K        6.27749634       6.37514877      12.45036697  F        0       0.00000000       0.00000000       0.00000000       0.00000000       0.00000000       0.00000000
As       4.18499756      21.03938103      14.54286575  F        0       0.00000000       0.00000000       0.00000000       0.00000000       0.00000000       0.00000000
As       4.18499756       8.28908443      14.54286575  F        0       0.00000000       0.00000000       0.00000000       0.00000000       0.00000000       0.00000000
As       6.27749634      23.58666039      16.63536453  F        0       0.00000000       0.00000000       0.00000000       0.00000000       0.00000000       0.00000000
As       6.27749634      10.83636284      12.45036697  F        0       0.00000000       0.00000000       0.00000000       0.00000000       0.00000000       0.00000000
As       6.27749634      14.66423321      16.63536453  F        0       0.00000000       0.00000000       0.00000000       0.00000000       0.00000000       0.00000000
As       6.27749634       1.91393507      12.45036697  F        0       0.00000000       0.00000000       0.00000000       0.00000000       0.00000000       0.00000000
As       4.18499756      17.21151161      14.54286575  F        0       0.00000000       0.00000000       0.00000000       0.00000000       0.00000000       0.00000000
As       4.18499756       4.46121359      14.54286575  F        0       0.00000000       0.00000000       0.00000000       0.00000000       0.00000000       0.00000000
Ru       6.27749634      22.31302071      14.54286575  F        0       0.00000000       0.00000000       0.00000000       0.00000000       0.00000000       0.00000000
Ru       6.27749634       9.56272316      14.54286575  F        0       0.00000000       0.00000000       0.00000000       0.00000000       0.00000000       0.00000000
Ru       4.18499756      22.31302071      16.63536453  F        0       0.00000000       0.00000000       0.00000000       0.00000000       0.00000000       0.00000000
Ru       4.18499756       9.56272316      12.45036697  F        0       0.00000000       0.00000000       0.00000000       0.00000000       0.00000000       0.00000000
Ru       4.18499756      15.93787193      16.63536453  F        0       0.00000000       0.00000000       0.00000000       0.00000000       0.00000000       0.00000000
Ru       4.18499756       3.18757439      12.45036697  F        0       0.00000000       0.00000000       0.00000000       0.00000000       0.00000000       0.00000000
Ru       6.27749634      15.93787193      14.54286575  F        0       0.00000000       0.00000000       0.00000000       0.00000000       0.00000000       0.00000000
Ru       6.27749634       3.18757439      14.54286575  F        0       0.00000000       0.00000000       0.00000000       0.00000000       0.00000000       0.00000000
K        4.23271710       0.03052579      18.80969109  T        1       0.02805500      -0.02554900       0.06253600       0.02805500      -0.02554900       0.06253600
K        4.18548413      12.68294779      19.03872028  T        1       0.00045500       0.00152100       0.00234800       0.00045500       0.00152100       0.00234800
K        6.27785012      19.11837985      21.04922596  T        1       0.00023100       0.00084900       0.00347600       0.00023100       0.00084900       0.00347600
K        6.28038357       6.37025063      16.88827853  T        1      -0.00192900      -0.01465700       0.01619500      -0.00192900      -0.01465700       0.01619500
As       4.18499756      21.03938103      18.72786331  F        0       0.00000000       0.00000000       0.00000000       0.00000000       0.00000000       0.00000000
As       4.18503904       8.48452363      18.80625725  T        1      -0.00233800      -0.00324900       0.00257300      -0.00233800      -0.00324900       0.00257300
As       6.27740572      23.39009085      20.91228903  T        1      -0.00050500      -0.00575500       0.00031200      -0.00050500      -0.00575500       0.00031200
As       6.27749634      10.83636284      16.63536453  F        0       0.00000000       0.00000000       0.00000000       0.00000000       0.00000000       0.00000000
As       6.27768279      14.84467178      20.89046006  T        1       0.00049700      -0.00140400      -0.00223700       0.00049700      -0.00140400      -0.00223700
As       6.27749634       1.91393507      16.63536453  F        0       0.00000000       0.00000000       0.00000000       0.00000000       0.00000000       0.00000000
As       4.18499756      17.21151161      18.72786331  F        0       0.00000000       0.00000000       0.00000000       0.00000000       0.00000000       0.00000000
As       4.18709100       4.22308780      18.83057932  T        1       0.01318400      -0.02996300       0.00003000       0.01318400      -0.02996300       0.00003000
Ru       6.27749634      22.31302071      18.72786331  F        0       0.00000000       0.00000000       0.00000000       0.00000000       0.00000000       0.00000000
Ru       6.27666844       9.60637266      18.66224274  T        1       0.00256700       0.00438100      -0.00203400       0.00256700       0.00438100      -0.00203400
Ru       4.18327858      22.26521196      20.76459378  T        1      -0.00007700       0.00252900      -0.00282300      -0.00007700       0.00252900      -0.00282300
Ru       4.18499756       9.56272316      16.63536453  F        0       0.00000000       0.00000000       0.00000000       0.00000000       0.00000000       0.00000000
Ru       4.18554393      15.98082257      20.75529049  T        1      -0.00126200      -0.00104100      -0.00164700      -0.00126200      -0.00104100      -0.00164700
Ru       4.18499756       3.18757439      16.63536453  F        0       0.00000000       0.00000000       0.00000000       0.00000000       0.00000000       0.00000000
Ru       6.27749634      15.93787193      18.72786331  F        0       0.00000000       0.00000000       0.00000000       0.00000000       0.00000000       0.00000000
Ru       6.21649670       2.94983298      19.05313316  T        1      -0.05860200      -0.16287800       0.35635900      -0.05860200      -0.16287800       0.35635900
C        6.25245380       2.96048323      21.86588034  T        2       0.00790200       0.12905300      -0.58593100       0.00790200       0.12905300      -0.58593100