69
Lattice="17.774307250976562 7.434862928864551e-16 6.07102632522583 -4.917368412017822 11.453399658203125 -5.287814617156982 -0.0 4.868287983026201e-15 39.752586364746094" Properties=species:S:1:pos:R:3:move_mask:L:1:tags:I:1:DFT_forces:R:3:forces:R:3:magmoms:R:1 DFT_energy=-239.78832412 energy=-239.78832412 dipole="_JSON [[0.0, 0.0, 0.0]]" magmom=0.0 free_energy=-239.81046802 pbc="T T T"
Tl      -2.92720039       8.22557584      17.91998053  T        1       0.00279500       0.00264900      -0.00782500       0.00279500       0.00264900      -0.00782500       0.00000000
Tl       8.86690998       5.78991842      20.67683220  F        0       0.00000000       0.00000000       0.00000000       0.16775800      -0.07802600      -0.07751600       0.00000000
Tl       2.74066043       3.49923825      17.31835556  F        0       0.00000000       0.00000000       0.00000000       0.15081000      -0.19870200      -0.08738600       0.00000000
Tl      14.38871861       1.20855832      20.03090477  F        0       0.00000000       0.00000000       0.00000000      -0.19025400       0.02331300       0.01467200       0.00000000
Tl       3.77985813       9.73254593      21.61597772  T        1       0.00916000       0.03082300       0.02139400       0.00916000       0.03082300       0.02139400       0.00000000
Tl      15.63808823       3.37280154      23.68045807  F        0       0.00000000       0.00000000       0.00000000       0.00590000       0.04576500      -0.12486400       0.00000000
Tl       9.51183891       1.08212161      20.32198143  F        0       0.00000000       0.00000000       0.00000000       0.03439500      -0.18048400      -0.04234900       0.00000000
Tl      -1.53177941      10.24484158      11.67569065  F        0       0.00000000       0.00000000       0.00000000       0.37750000       0.60292000       0.03299700       0.00000000
Tl      10.24635810       7.91427697      24.36276364  T        1       0.00024200       0.00487100      -0.00112600       0.00024200       0.00487100      -0.00112600       0.00000000
Tl       3.91607974       5.61105076      21.05349449  T        1       0.00093800      -0.00779500      -0.00202200       0.00093800      -0.00779500      -0.00202200       0.00000000
Tl       4.93683577       0.50974798      20.73447990  F        0       0.00000000       0.00000000       0.00000000       0.12915000       0.17303900      -0.33801000       0.00000000
Tl      11.66752529       9.67246819      18.15921593  F        0       0.00000000       0.00000000       0.00000000      -0.13433600      -0.02249700       0.06732700       0.00000000
Tl       5.54127598       7.38178778      14.80073833  F        0       0.00000000       0.00000000       0.00000000      -0.16382000       0.24571500       0.01733400       0.00000000
Tl      -0.58911060       6.23518219      20.99835344  T        1      -0.00353700      -0.00100900      -0.00792600      -0.00353700      -0.00100900      -0.00792600       0.00000000
Tl      10.61597552       2.65244210      25.03784707  T        1       0.00259600      -0.00546800       0.00415300       0.00259600      -0.00546800       0.00415300       0.00000000
Tl       7.96927792      10.99128070      20.85822412  T        1       0.00301200      -0.00726600      -0.00282200       0.00301200      -0.00726600      -0.00282200       0.00000000
Tl       1.79385424       8.65297222      17.55178452  F        0       0.00000000       0.00000000       0.00000000       0.02718200      -0.06524200       0.07305000       0.00000000
Tl      13.44191265       6.36229181      20.26433372  F        0       0.00000000       0.00000000       0.00000000      -0.12678900      -0.31693100      -0.04893600       0.00000000
Tl       7.31566334       4.07161188      16.90585709  F        0       0.00000000       0.00000000       0.00000000      -0.28175800      -0.41620800       0.17732700       0.00000000
Tl       1.30577286       1.68380332      23.46934876  T        1      -0.00746200      -0.00280700       0.00185200      -0.00746200      -0.00280700       0.00185200       0.00000000
Ge      12.02503469      10.42001248      22.16329187  T        1       0.00415100       0.01022600      -0.00164700       0.00415100       0.01022600      -0.00164700       0.00000000
Ge       5.92448187       8.10485840      18.83049202  F        0       0.00000000       0.00000000       0.00000000       0.00158700      -0.03764100      -0.47039200       0.00000000
Ge      -0.20176780       5.81417894      15.47201538  F        0       0.00000000       0.00000000       0.00000000      -0.14722200      -0.23755900      -0.51314100       0.00000000
Ge      11.44629097       3.52349877      18.18456459  F        0       0.00000000       0.00000000       0.00000000      -0.23316800       1.00347600      -0.47399500       0.00000000
Ge       5.34688289       1.31749104      24.63640401  T        1       0.02096900       0.00450500      -0.00070000       0.02096900       0.00450500      -0.00070000       0.00000000
Ge       0.80620825       1.05786121      19.45577240  F        0       0.00000000       0.00000000       0.00000000      -0.08720200       0.08252500      -0.00588100       0.00000000
Ge       7.53689814      10.22058105      16.88050652  F        0       0.00000000       0.00000000       0.00000000      -0.02945700      -0.07190900      -0.29469900       0.00000000
Ge       1.41064870       7.92990112      13.52202988  F        0       0.00000000       0.00000000       0.00000000       0.34603800       0.02493500       0.31491100       0.00000000
Ge      12.98584434       5.76892226      26.14265805  T        1       0.00201200      -0.01612100       0.00974600       0.00201200      -0.01612100       0.00974600       0.00000000
Ge       6.99972330       3.40953481      22.80420632  T        1       0.00201600       0.00459900       0.01530200       0.00201600       0.00459900       0.01530200       0.00000000
Se       0.42907968       1.16576934      17.10550308  F        0       0.00000000       0.00000000       0.00000000       0.21648800      -0.06808200       0.21323000       0.00000000
Se       7.15976954      10.32848930      14.53023911  F        0       0.00000000       0.00000000       0.00000000       0.03376800       0.04726300       0.38188200       0.00000000
Se       1.85840364       8.00811394      21.28838988  T        1      -0.00465700      -0.00826700      -0.00950600      -0.00465700      -0.00826700      -0.00950600       0.00000000
Se      12.68157864       5.74712944      23.82245827  F        0       0.00000000       0.00000000       0.00000000       0.00970800       0.00338400       0.15039000       0.00000000
Se       6.55532932       3.45644927      20.46398163  F        0       0.00000000       0.00000000       0.00000000       0.14474400      -0.18797800       0.15241700       0.00000000
Se      12.44272427      10.28634495      24.47462007  T        1       0.00180900       0.00260400      -0.00756100       0.00180900       0.00260400      -0.00756100       0.00000000
Se       6.30161047       7.99695063      21.18075943  F        0       0.00000000       0.00000000       0.00000000      -0.21237800       0.22238000       0.04068000       0.00000000
Se       0.17536078       5.70627069      17.82228279  F        0       0.00000000       0.00000000       0.00000000       0.03644600       0.02067400      -0.10592400       0.00000000
Se      11.82341957       3.41559052      20.53483200  F        0       0.00000000       0.00000000       0.00000000       0.15317700       0.11664700       0.08919500       0.00000000
Se       5.69716978       1.12491059      17.17635536  F        0       0.00000000       0.00000000       0.00000000      -0.42955500       0.09372000       0.09920700       0.00000000
Se      10.41828632       8.89189625      21.30097961  F        0       0.00000000       0.00000000       0.00000000       0.09394400       0.13692900       0.04648700       0.00000000
Se       4.29203749       6.60121632      17.94250107  F        0       0.00000000       0.00000000       0.00000000       0.38510200       0.11918600      -0.01366500       0.00000000
Se      -1.83421206       4.31053638      14.58402443  F        0       0.00000000       0.00000000       0.00000000       0.08585500       0.27504300       0.27478900       0.00000000
Se       9.13551395       0.74435576      27.49982890  T        1       0.01876200      -0.01261200      -0.00202800       0.01876200      -0.01261200      -0.00202800       0.00000000
Se      -1.27683113      11.24807446      19.27682913  T        1      -0.00377100       0.00689600       0.00611200      -0.00377100       0.00689600       0.00611200       0.00000000
Se       2.43865252       2.56150365      20.34376335  F        0       0.00000000       0.00000000       0.00000000      -0.23354900      -0.21719900      -0.02461900       0.00000000
Se      14.08671093       0.27082378      23.05631256  F        0       0.00000000       0.00000000       0.00000000      -0.06076200      -0.24663700      -0.09800700       0.00000000
Se       3.04309297       9.43354321      14.41002083  F        0       0.00000000       0.00000000       0.00000000       0.03193200      -0.21814700      -0.11961600       0.00000000
Se      14.36119519       7.44199778      27.01342048  T        1       0.00615600      -0.01856100       0.00205400       0.00615600      -0.01856100       0.00205400       0.00000000
Se       8.66681708       4.79953548      23.65811239  T        1      -0.00908100      -0.00375900      -0.00012400      -0.00908100      -0.00375900      -0.00012400       0.00000000
Se      16.48799896       1.29324365      26.84214211  F        0       0.00000000       0.00000000       0.00000000       0.10639900       0.02252600      -0.07422800       0.00000000
Se       5.44438124      10.45596313      18.19585037  F        0       0.00000000       0.00000000       0.00000000       0.20487300      -0.15663700       0.06040500       0.00000000
Se      -0.68186843       8.16528320      14.83737278  F        0       0.00000000       0.00000000       0.00000000      -0.08216400      -0.05126700       0.05336300       0.00000000
Se      10.96619034       5.87460375      17.54992294  F        0       0.00000000       0.00000000       0.00000000       0.31683600      -1.02873200       0.36125700       0.00000000
Se       4.91926460       3.62025096      24.18130774  T        1      -0.00445300      -0.01580500      -0.00818100      -0.00445300      -0.01580500      -0.00818100       0.00000000
Se      -3.63105965      10.16015625      14.80259991  F        0       0.00000000       0.00000000       0.00000000      -0.15353500       0.20631200      -0.06787700       0.00000000
Se       8.01699924       7.86947632      17.51515007  F        0       0.00000000       0.00000000       0.00000000      -0.25797500       0.15000300       0.17273100       0.00000000
Se       1.89074934       5.57879639      14.15667248  F        0       0.00000000       0.00000000       0.00000000      -0.09053400      -0.00951300       0.12562700       0.00000000
Se      11.87900195       4.32637913      27.47998144  T        1       0.01379100      -0.01248700       0.00071400       0.01379100      -0.01248700       0.00071400       0.00000000
Se       7.41255856       0.99743629      23.44889069  F        0       0.00000000       0.00000000       0.00000000      -0.21675500       0.17170100       0.02700500       0.00000000
C        5.25779033       0.81957993      27.73620848  T        2      -0.00622200       0.01025400       0.00355600      -0.00622200       0.01025400       0.00355600       0.00000000
C        4.31708769       1.89482290      28.25403148  T        2       0.00258300       0.00681400       0.01577800       0.00258300       0.00681400       0.01577800       0.00000000
H       -0.20756034      11.38272043      22.09763529  T        2       0.00105500      -0.00757700      -0.00059100       0.00105500      -0.00757700      -0.00059100       0.00000000
H        5.99137112       0.51161423      28.50002376  T        2      -0.00268900       0.01538400      -0.01926800      -0.00268900       0.01538400      -0.01926800       0.00000000
H        7.05686409       1.13181751      26.76437110  T        2       0.00777600       0.01952100      -0.01564400       0.00777600       0.01952100      -0.01564400       0.00000000
H        3.57931624       2.19098022      27.48966427  T        2       0.01876500      -0.00135100       0.01566100       0.01876500      -0.00135100       0.01566100       0.00000000
H        4.87156097       2.79005974      28.57887453  T        2      -0.00870600       0.00153300       0.00383500      -0.00870600       0.00153300       0.00383500       0.00000000
H        3.76071706       1.49356263      29.11946501  T        2      -0.00174400       0.01453600       0.00183800      -0.00174400       0.01453600       0.00183800       0.00000000
O        6.05654863       1.33340601      26.60296891  T        2       0.00535400       0.00760700       0.01979600       0.00535400       0.00760700       0.01979600       0.00000000
69
Lattice="17.774307250976562 7.434862928864551e-16 6.07102632522583 -4.917368412017822 11.453399658203125 -5.287814617156982 -0.0 4.868287983026201e-15 39.752586364746094" Properties=species:S:1:pos:R:3:move_mask:L:1:tags:I:1:DFT_forces:R:3:forces:R:3 DFT_energy=-239.71264595 energy=-239.71264595 pbc="T T T"
Tl      -2.93589260       8.24331020      17.94433905  T        1       0.00050700       0.00394400      -0.00259000       0.00050700       0.00394400      -0.00259000
Tl       8.86690998       5.78991842      20.67683220  F        0       0.00000000       0.00000000       0.00000000       0.00000000       0.00000000       0.00000000
Tl       2.74066043       3.49923825      17.31835556  F        0       0.00000000       0.00000000       0.00000000       0.00000000       0.00000000       0.00000000
Tl      14.38871861       1.20855832      20.03090477  F        0       0.00000000       0.00000000       0.00000000       0.00000000       0.00000000       0.00000000
Tl       3.83454183       9.89684762      21.58344900  T        1      -0.01999800      -0.00644600       0.00280100      -0.01999800      -0.00644600       0.00280100
Tl      15.63808823       3.37280154      23.68045807  F        0       0.00000000       0.00000000       0.00000000       0.00000000       0.00000000       0.00000000
Tl       9.51183891       1.08212161      20.32198143  F        0       0.00000000       0.00000000       0.00000000       0.00000000       0.00000000       0.00000000
Tl      -1.53177941      10.24484158      11.67569065  F        0       0.00000000       0.00000000       0.00000000       0.00000000       0.00000000       0.00000000
Tl      10.25175391       7.91762546      24.35086678  T        1       0.00165300      -0.00047500       0.00167500       0.00165300      -0.00047500       0.00167500
Tl       3.89941596       5.70435401      21.04279940  T        1       0.00963600      -0.01156000       0.00193200       0.00963600      -0.01156000       0.00193200
Tl       4.93683577       0.50974798      20.73447990  F        0       0.00000000       0.00000000       0.00000000       0.00000000       0.00000000       0.00000000
Tl      11.66752529       9.67246819      18.15921593  F        0       0.00000000       0.00000000       0.00000000       0.00000000       0.00000000       0.00000000
Tl       5.54127598       7.38178778      14.80073833  F        0       0.00000000       0.00000000       0.00000000       0.00000000       0.00000000       0.00000000
Tl      -0.51835383       6.32843344      20.97448031  T        1       0.00055000      -0.00768100       0.00020600       0.00055000      -0.00768100       0.00020600
Tl      10.68712156       2.62133438      24.96751879  T        1       0.00525700       0.00283500       0.00690200       0.00525700       0.00283500       0.00690200
Tl       7.86610711      11.00259806      20.92149781  T        1      -0.00059600      -0.00535700      -0.00711000      -0.00059600      -0.00535700      -0.00711000
Tl       1.79385424       8.65297222      17.55178452  F        0       0.00000000       0.00000000       0.00000000       0.00000000       0.00000000       0.00000000
Tl      13.44191265       6.36229181      20.26433372  F        0       0.00000000       0.00000000       0.00000000       0.00000000       0.00000000       0.00000000
Tl       7.31566334       4.07161188      16.90585709  F        0       0.00000000       0.00000000       0.00000000       0.00000000       0.00000000       0.00000000
Tl       1.25652784       1.66642002      23.46637399  T        1       0.01879100      -0.00024000       0.01290400       0.01879100      -0.00024000       0.01290400
Ge      12.02020613      10.41946482      22.15803814  T        1      -0.00278100       0.00166500      -0.00624200      -0.00278100       0.00166500      -0.00624200
Ge       5.92448187       8.10485840      18.83049202  F        0       0.00000000       0.00000000       0.00000000       0.00000000       0.00000000       0.00000000
Ge      -0.20176780       5.81417894      15.47201538  F        0       0.00000000       0.00000000       0.00000000       0.00000000       0.00000000       0.00000000
Ge      11.44629097       3.52349877      18.18456459  F        0       0.00000000       0.00000000       0.00000000       0.00000000       0.00000000       0.00000000
Ge       5.37420838       1.41011358      24.70592604  T        1      -0.00193300      -0.00923800       0.04502500      -0.00193300      -0.00923800       0.04502500
Ge       0.80620825       1.05786121      19.45577240  F        0       0.00000000       0.00000000       0.00000000       0.00000000       0.00000000       0.00000000
Ge       7.53689814      10.22058105      16.88050652  F        0       0.00000000       0.00000000       0.00000000       0.00000000       0.00000000       0.00000000
Ge       1.41064870       7.92990112      13.52202988  F        0       0.00000000       0.00000000       0.00000000       0.00000000       0.00000000       0.00000000
Ge      13.07222762       5.69367091      26.13307591  T        1      -0.02000100       0.00378700       0.00006400      -0.02000100       0.00378700       0.00006400
Ge       7.02471956       3.42655520      22.79076297  T        1       0.00141500      -0.03076600       0.03265200       0.00141500      -0.03076600       0.03265200
Se       0.42907968       1.16576934      17.10550308  F        0       0.00000000       0.00000000       0.00000000       0.00000000       0.00000000       0.00000000
Se       7.15976954      10.32848930      14.53023911  F        0       0.00000000       0.00000000       0.00000000       0.00000000       0.00000000       0.00000000
Se       1.92650801       8.21202634      21.07643102  T        1      -0.01146500       0.01887500      -0.00104000      -0.01146500       0.01887500      -0.00104000
Se      12.68157864       5.74712944      23.82245827  F        0       0.00000000       0.00000000       0.00000000       0.00000000       0.00000000       0.00000000
Se       6.55532932       3.45644927      20.46398163  F        0       0.00000000       0.00000000       0.00000000       0.00000000       0.00000000       0.00000000
Se      12.43651468      10.30288780      24.47653971  T        1       0.00319400      -0.01610100      -0.00314600       0.00319400      -0.01610100      -0.00314600
Se       6.30161047       7.99695063      21.18075943  F        0       0.00000000       0.00000000       0.00000000       0.00000000       0.00000000       0.00000000
Se       0.17536078       5.70627069      17.82228279  F        0       0.00000000       0.00000000       0.00000000       0.00000000       0.00000000       0.00000000
Se      11.82341957       3.41559052      20.53483200  F        0       0.00000000       0.00000000       0.00000000       0.00000000       0.00000000       0.00000000
Se       5.69716978       1.12491059      17.17635536  F        0       0.00000000       0.00000000       0.00000000       0.00000000       0.00000000       0.00000000
Se      10.41828632       8.89189625      21.30097961  F        0       0.00000000       0.00000000       0.00000000       0.00000000       0.00000000       0.00000000
Se       4.29203749       6.60121632      17.94250107  F        0       0.00000000       0.00000000       0.00000000       0.00000000       0.00000000       0.00000000
Se      -1.83421206       4.31053638      14.58402443  F        0       0.00000000       0.00000000       0.00000000       0.00000000       0.00000000       0.00000000
Se       9.50109346       0.77873590      27.59204277  T        1      -0.04235600       0.02109900      -0.01141800      -0.04235600       0.02109900      -0.01141800
Se      -1.25368365      11.37273343      19.57505180  T        1       0.01704300      -0.00588800       0.02021500       0.01704300      -0.00588800       0.02021500
Se       2.43865252       2.56150365      20.34376335  F        0       0.00000000       0.00000000       0.00000000       0.00000000       0.00000000       0.00000000
Se      14.08671093       0.27082378      23.05631256  F        0       0.00000000       0.00000000       0.00000000       0.00000000       0.00000000       0.00000000
Se       3.04309297       9.43354321      14.41002083  F        0       0.00000000       0.00000000       0.00000000       0.00000000       0.00000000       0.00000000
Se      14.38647917       7.40192172      27.03960949  T        1       0.00022000      -0.01279400      -0.01396900       0.00022000      -0.01279400      -0.01396900
Se       8.69158756       4.79912783      23.65851367  T        1       0.01020300      -0.00524200       0.00806900       0.01020300      -0.00524200       0.00806900
Se      16.48799896       1.29324365      26.84214211  F        0       0.00000000       0.00000000       0.00000000       0.00000000       0.00000000       0.00000000
Se       5.44438124      10.45596313      18.19585037  F        0       0.00000000       0.00000000       0.00000000       0.00000000       0.00000000       0.00000000
Se      -0.68186843       8.16528320      14.83737278  F        0       0.00000000       0.00000000       0.00000000       0.00000000       0.00000000       0.00000000
Se      10.96619034       5.87460375      17.54992294  F        0       0.00000000       0.00000000       0.00000000       0.00000000       0.00000000       0.00000000
Se       4.94221835       3.67215856      24.14661016  T        1      -0.01393300       0.01717100       0.03314900      -0.01393300       0.01717100       0.03314900
Se      -3.63105965      10.16015625      14.80259991  F        0       0.00000000       0.00000000       0.00000000       0.00000000       0.00000000       0.00000000
Se       8.01699924       7.86947632      17.51515007  F        0       0.00000000       0.00000000       0.00000000       0.00000000       0.00000000       0.00000000
Se       1.89074934       5.57879639      14.15667248  F        0       0.00000000       0.00000000       0.00000000       0.00000000       0.00000000       0.00000000
Se      12.09130655       4.13699655      27.44384253  T        1       0.00498400       0.00723300      -0.00516000       0.00498400       0.00723300      -0.00516000
Se       7.41255856       0.99743629      23.44889069  F        0       0.00000000       0.00000000       0.00000000       0.00000000       0.00000000       0.00000000
C        5.33663844       1.18535330      28.07937579  T        2       0.01064900       0.00617700      -0.02528700       0.01064900       0.00617700      -0.02528700
C        4.44916910       2.25410585      28.70880687  T        2       0.03239500       0.00899800      -0.03958000       0.03239500       0.00899800      -0.03958000
H        4.73895213       0.31857035      27.74674674  T        2       0.02027400       0.01306500      -0.03983900       0.02027400       0.01306500      -0.03983900
H        6.09805821       0.83485210      28.79727787  T        2       0.01455500      -0.02203600      -0.05732000       0.01455500      -0.02203600      -0.05732000
H        7.03528261       1.50834004      27.01389503  T        2       0.01387900      -0.02945200      -0.01366700       0.01387900      -0.02945200      -0.01366700
H        3.71506026       2.65197088      27.98969593  T        2       0.00516000      -0.01694100      -0.03333800       0.00516000      -0.01694100      -0.03333800
H        5.03699575       3.09561094      29.11128324  T        2       0.03377100      -0.01142700      -0.04765300       0.03377100      -0.01142700      -0.04765300
H        3.88525024       1.80194097      29.54628857  T        2       0.03973400      -0.00326600      -0.04899400       0.03973400      -0.00326600      -0.04899400
O        6.06484652       1.71204190      26.90293912  T        2       0.00257900      -0.02000700      -0.05808200       0.00257900      -0.02000700      -0.05808200
69
Lattice="17.774307250976562 7.434862928864551e-16 6.07102632522583 -4.917368412017822 11.453399658203125 -5.287814617156982 -0.0 4.868287983026201e-15 39.752586364746094" Properties=species:S:1:pos:R:3:move_mask:L:1:tags:I:1:DFT_forces:R:3:forces:R:3 DFT_energy=-239.55366584 energy=-239.55366584 pbc="T T T"
Tl      -2.93495042       8.25258041      17.92011994  T        1       0.00108400      -0.00620400       0.00800500       0.00108400      -0.00620400       0.00800500
Tl       8.86690998       5.78991842      20.67683220  F        0       0.00000000       0.00000000       0.00000000       0.00000000       0.00000000       0.00000000
Tl       2.74066043       3.49923825      17.31835556  F        0       0.00000000       0.00000000       0.00000000       0.00000000       0.00000000       0.00000000
Tl      14.38871861       1.20855832      20.03090477  F        0       0.00000000       0.00000000       0.00000000       0.00000000       0.00000000       0.00000000
Tl       3.85186359       9.93796494      21.65141218  T        1      -0.01729400       0.00694300      -0.00258300      -0.01729400       0.00694300      -0.00258300
Tl      15.63808823       3.37280154      23.68045807  F        0       0.00000000       0.00000000       0.00000000       0.00000000       0.00000000       0.00000000
Tl       9.51183891       1.08212161      20.32198143  F        0       0.00000000       0.00000000       0.00000000       0.00000000       0.00000000       0.00000000
Tl      -1.53177941      10.24484158      11.67569065  F        0       0.00000000       0.00000000       0.00000000       0.00000000       0.00000000       0.00000000
Tl      10.24364985       7.93767158      24.33890502  T        1      -0.00020300      -0.00499500       0.00072700      -0.00020300      -0.00499500       0.00072700
Tl       3.88205172       5.76175300      21.04442535  T        1       0.00760100      -0.00274000       0.00018900       0.00760100      -0.00274000       0.00018900
Tl       4.93683577       0.50974798      20.73447990  F        0       0.00000000       0.00000000       0.00000000       0.00000000       0.00000000       0.00000000
Tl      11.66752529       9.67246819      18.15921593  F        0       0.00000000       0.00000000       0.00000000       0.00000000       0.00000000       0.00000000
Tl       5.54127598       7.38178778      14.80073833  F        0       0.00000000       0.00000000       0.00000000       0.00000000       0.00000000       0.00000000
Tl      -0.48563836       6.34006076      20.97879002  T        1      -0.00689300       0.00119700      -0.00331300      -0.00689300       0.00119700      -0.00331300
Tl      10.69705736       2.70070995      24.98144003  T        1       0.00608400      -0.00350700       0.00930700       0.00608400      -0.00350700       0.00930700
Tl       7.76164087      11.02218084      20.96800337  T        1      -0.00193900       0.00032500      -0.00394000      -0.00193900       0.00032500      -0.00394000
Tl       1.79385424       8.65297222      17.55178452  F        0       0.00000000       0.00000000       0.00000000       0.00000000       0.00000000       0.00000000
Tl      13.44191265       6.36229181      20.26433372  F        0       0.00000000       0.00000000       0.00000000       0.00000000       0.00000000       0.00000000
Tl       7.31566334       4.07161188      16.90585709  F        0       0.00000000       0.00000000       0.00000000       0.00000000       0.00000000       0.00000000
Tl       1.17059173       1.68346947      23.43166755  T        1       0.01503500      -0.00601700       0.00820100       0.01503500      -0.00601700       0.00820100
Ge      12.01464382      10.41292871      22.15334533  T        1       0.00339200       0.00160900      -0.00542400       0.00339200       0.00160900      -0.00542400
Ge       5.92448187       8.10485840      18.83049202  F        0       0.00000000       0.00000000       0.00000000       0.00000000       0.00000000       0.00000000
Ge      -0.20176780       5.81417894      15.47201538  F        0       0.00000000       0.00000000       0.00000000       0.00000000       0.00000000       0.00000000
Ge      11.44629097       3.52349877      18.18456459  F        0       0.00000000       0.00000000       0.00000000       0.00000000       0.00000000       0.00000000
Ge       5.30822172       1.38901772      24.56988830  T        1       0.02626400      -0.00545900       0.01317400       0.02626400      -0.00545900       0.01317400
Ge       0.80620825       1.05786121      19.45577240  F        0       0.00000000       0.00000000       0.00000000       0.00000000       0.00000000       0.00000000
Ge       7.53689814      10.22058105      16.88050652  F        0       0.00000000       0.00000000       0.00000000       0.00000000       0.00000000       0.00000000