66
Lattice="13.159754753112793 0.0 -0.8113988041877747 -1.1116501092910767 8.633423805236816 -0.5190062522888184 0.0 0.0 32.96112823486328" Properties=species:S:1:pos:R:3:move_mask:L:1:tags:I:1:DFT_forces:R:3:forces:R:3:magmoms:R:1 DFT_energy=-338.33015563 energy=-338.33015563 dipole="_JSON [[0.0, 0.0, 0.0]]" magmom=0.0 free_energy=-338.35366557 pbc="T T T"
Rh       2.29813144       7.72137609      18.25497404  T        1      -0.01784300       0.00803600       0.00835100      -0.01784300       0.00803600       0.00835100       0.00000000
Rh       1.59293122       4.03669533      19.72163273  T        1      -0.01203300       0.01123200      -0.00252500      -0.01203300       0.01123200      -0.00252500       0.00000000
Rh       4.86010313       1.46870434      17.89850426  F        0       0.00000000       0.00000000       0.00000000      -0.11005000      -0.06319100      -0.07085600       0.00000000
Rh       0.16315165       1.72446532      20.52692720  T        1       0.00454300      -0.00182900      -0.00174500       0.00454300      -0.00182900      -0.00174500       0.00000000
Rh      -0.09617844       6.09187794      18.47447777  F        0       0.00000000       0.00000000       0.00000000       0.12742000      -0.25250500       0.27552700       0.00000000
Rh       3.88257723       5.74253140      19.48118294  T        1       0.01794900      -0.00944300       0.00157700       0.01794900      -0.00944300       0.00157700       0.00000000
Rh       3.16302347       6.01931715      15.00590038  F        0       0.00000000       0.00000000       0.00000000      -0.04294400       0.12227800      -0.24716100       0.00000000
Rh       2.39323568       2.44143844      16.70723343  F        0       0.00000000       0.00000000       0.00000000       0.11361400      -0.02265600       0.14710700       0.00000000
Rh       4.62877083       8.37544346      14.14661598  F        0       0.00000000       0.00000000       0.00000000      -0.26290900      -0.18701300      -0.18310900       0.00000000
Rh       0.92748845       0.08531203      17.56651878  F        0       0.00000000       0.00000000       0.00000000       0.00264300       0.32195600       0.12129200       0.00000000
Rh       0.78413934       4.36519289      15.24159622  F        0       0.00000000       0.00000000       0.00000000       0.09120700       0.15487600       0.02042600       0.00000000
Rh       4.77212000       4.09556293      16.47153854  F        0       0.00000000       0.00000000       0.00000000      -0.07534700      -0.09784000       0.30445400       0.00000000
Rh       4.04334116       4.29263258      11.77301884  F        0       0.00000000       0.00000000       0.00000000      -0.37654400       0.33829600       0.92717300       0.00000000
Rh       3.27355361       0.71475369      13.47435284  F        0       0.00000000       0.00000000       0.00000000       0.09166900       0.03411300       0.39719300       0.00000000
Rh       5.50908852       6.64875889      10.91373444  F        0       0.00000000       0.00000000       0.00000000      -0.34218500       0.06865500       1.41047100       0.00000000
Rh       0.69615608       6.99205160      13.81463051  F        0       0.00000000       0.00000000       0.00000000       0.13793900      -0.01739100      -0.08794900       0.00000000
Rh       1.66445708       2.63850808      12.00871468  F        0       0.00000000       0.00000000       0.00000000       0.34700500       0.65321600       1.27773500       0.00000000
Rh       5.65243769       2.36887789      13.23865604  F        0       0.00000000       0.00000000       0.00000000      -0.16453800      -0.31530100       0.23785400       0.00000000
Te       2.48242579       1.58039836      19.26260927  T        1       0.01930100      -0.00068400      -0.01544000       0.01930100      -0.00068400      -0.01544000       0.00000000
Te       1.63951809       6.50021141      20.60169877  T        1       0.00065300       0.02508000       0.01247400       0.00065300       0.02508000       0.01247400       0.00000000
Te       4.88766405       8.06364805      18.85523302  T        1      -0.01940100       0.00682600       0.00020400      -0.01940100       0.00682600       0.00020400       0.00000000
Te       5.52801493       3.80037805      19.13083651  T        1      -0.01955500       0.02675100      -0.01409700      -0.01955500       0.02675100      -0.01409700       0.00000000
Te       2.22230458       8.54708958      15.59706402  F        0       0.00000000       0.00000000       0.00000000      -0.06829900       0.05048400      -0.10149800       0.00000000
Te       2.33797073       5.09372044      17.47300720  F        0       0.00000000       0.00000000       0.00000000      -0.06847000       0.08135900      -0.79096500       0.00000000
Te       5.75354767       6.38358641      15.51674652  F        0       0.00000000       0.00000000       0.00000000      -0.01793500       0.07280100       0.01208400       0.00000000
Te      -0.19728833       2.07716942      16.19638824  F        0       0.00000000       0.00000000       0.00000000      -0.07235000       0.14094600      -0.21434600       0.00000000
Te       3.10262227       6.82040501      12.36418247  F        0       0.00000000       0.00000000       0.00000000       0.86688600      -0.25036700      -0.11225400       0.00000000
Te       3.21828842       3.36703539      14.24012661  F        0       0.00000000       0.00000000       0.00000000       0.04378600      -0.30201000      -1.15658900       0.00000000
Te       0.05398775       4.65690136      12.68956470  F        0       0.00000000       0.00000000       0.00000000      -0.13269300      -0.55601300      -1.14891800       0.00000000
Te       0.68302947       0.35048467      12.96350574  F        0       0.00000000       0.00000000       0.00000000      -0.12631900       0.10657600      -1.11142400       0.00000000
Rh       8.86840278       7.71524713      17.83009848  T        1      -0.01279300      -0.00663100       0.00483000      -0.01279300      -0.00663100       0.00483000       0.00000000
Rh       8.17255847       4.05849121      19.31299593  T        1      -0.00198600       0.00342700       0.00648100      -0.00198600       0.00342700       0.00648100       0.00000000
Rh      11.43998051       1.46870434      17.49280357  F        0       0.00000000       0.00000000       0.00000000       0.21380100       0.06200100       0.15378700       0.00000000
Rh       6.80866829       1.74831607      19.96412054  T        1      -0.00663800      -0.00356000       0.03196500      -0.00663800      -0.00356000       0.03196500       0.00000000
Rh       6.48369884       6.09187794      18.06877899  F        0       0.00000000       0.00000000       0.00000000       0.08791400      -0.24304700       0.27690000       0.00000000
Rh      10.46960218       5.74100168      19.06047576  T        1      -0.02161700       0.00427400       0.00555500      -0.02161700       0.00427400       0.00555500       0.00000000
Rh       9.74290085       6.01931715      14.60020065  F        0       0.00000000       0.00000000       0.00000000      -0.05802800       0.13876400      -0.24327000       0.00000000
Rh       8.97311306       2.44143844      16.30153465  F        0       0.00000000       0.00000000       0.00000000       0.12225400      -0.01052900       0.25772400       0.00000000
Rh      11.20864868       8.37544346      13.74091625  F        0       0.00000000       0.00000000       0.00000000      -0.24494800      -0.20992600      -0.18117100       0.00000000
Rh       7.50736618       0.08531203      17.16081810  F        0       0.00000000       0.00000000       0.00000000       0.02279400       0.18854100       0.20989700       0.00000000
Rh       7.36401701       4.36519289      14.83589649  F        0       0.00000000       0.00000000       0.00000000       0.06684600       0.17929700       0.05769700       0.00000000
Rh      11.35199738       4.09556293      16.06583786  F        0       0.00000000       0.00000000       0.00000000      -0.10104900      -0.09683200       0.23999900       0.00000000
Rh      10.62321854       4.29263258      11.36731911  F        0       0.00000000       0.00000000       0.00000000      -0.37238400       0.34292000       0.92825300       0.00000000
Rh       9.85343075       0.71475369      13.06865311  F        0       0.00000000       0.00000000       0.00000000       0.11750700       0.01401200       0.38588000       0.00000000
Rh      12.08896637       6.64875889      10.50803471  F        0       0.00000000       0.00000000       0.00000000      -0.34956400       0.06202400       1.40602900       0.00000000
Rh       7.27603340       6.99205160      13.40893078  F        0       0.00000000       0.00000000       0.00000000       0.13697900      -0.03429000      -0.08833500       0.00000000
Rh       8.24433422       2.63850808      11.60301495  F        0       0.00000000       0.00000000       0.00000000       0.33121500       0.65475900       1.27104600       0.00000000
Rh      12.23231506       2.36887789      12.83295727  F        0       0.00000000       0.00000000       0.00000000      -0.18801900      -0.31427100       0.20749100       0.00000000
Te       9.10838353       1.58658400      18.90079131  T        1      -0.03228700      -0.00923300       0.01018300      -0.03228700      -0.00923300       0.01018300       0.00000000
Te       8.22340510       6.51795725      20.17697568  T        1      -0.00530700       0.00533600      -0.00898300      -0.00530700       0.00533600      -0.00898300       0.00000000
Te      11.45216776       8.06631556      18.41333425  T        1      -0.01742600       0.00636800      -0.00802900      -0.01742600       0.00636800      -0.00802900       0.00000000
Te      12.11906977       3.79784034      18.72046207  T        1       0.01380200      -0.01846300       0.00337400       0.01380200      -0.01846300       0.00337400       0.00000000
Te       8.80218220       8.54708958      15.19136429  F        0       0.00000000       0.00000000       0.00000000      -0.12774500       0.04157200      -0.21396600       0.00000000
Te       8.91784859       5.09372044      17.06730843  F        0       0.00000000       0.00000000       0.00000000      -0.06404800      -0.01479400      -0.90291600       0.00000000
Te      12.33342457       6.38358641      15.11104679  F        0       0.00000000       0.00000000       0.00000000      -0.02825600      -0.01784400       0.02273400       0.00000000
Te       6.38258934       2.07716942      15.79068756  F        0       0.00000000       0.00000000       0.00000000      -0.06946600       0.12208000      -0.19314100       0.00000000
Te       9.68249989       6.82040501      11.95848274  F        0       0.00000000       0.00000000       0.00000000       0.85835200      -0.25742800      -0.12634400       0.00000000
Te       9.79816628       3.36703539      13.83442688  F        0       0.00000000       0.00000000       0.00000000       0.06253100      -0.30058500      -1.13412400       0.00000000
Te       6.63386536       4.65690136      12.28386497  F        0       0.00000000       0.00000000       0.00000000      -0.14237500      -0.54035600      -1.17320400       0.00000000
Te       7.26290703       0.35048467      12.55780602  F        0       0.00000000       0.00000000       0.00000000      -0.12453600       0.10175500      -1.12302400       0.00000000
N        1.03389853       1.76803017      22.50757407  T        2       0.00679300       0.01275400      -0.04010900       0.00679300       0.01275400      -0.04010900       0.00000000
H        1.76581258       1.04916016      22.60700605  T        2       0.01007300      -0.01975500       0.01354500       0.01007300      -0.01975500       0.01354500       0.00000000
H        1.52446632       2.66485359      22.64466850  T        2      -0.00087100       0.01120700       0.00395000      -0.00087100       0.01120700       0.00395000       0.00000000
N        0.16090485       1.60424027      23.68408424  T        2       0.00105100      -0.00532100       0.02698600       0.00105100      -0.00532100       0.02698600       0.00000000
H       12.55809397       2.28598275      22.72927033  T        2       0.00289800       0.00377700       0.01044400       0.00289800       0.00377700       0.01044400       0.00000000
H       12.86213877       0.69019473      22.72995683  T        2      -0.02066500       0.00075600       0.00682200      -0.02066500       0.00075600       0.00682200       0.00000000
66
Lattice="13.159754753112793 0.0 -0.8113988041877747 -1.1116501092910767 8.633423805236816 -0.5190062522888184 0.0 0.0 32.96112823486328" Properties=species:S:1:pos:R:3:move_mask:L:1:tags:I:1:DFT_forces:R:3:forces:R:3 DFT_energy=-338.24682916 energy=-338.24682916 pbc="T T T"
Rh       2.28682130       7.73006551      18.26045004  T        1      -0.00533100       0.00482700       0.00302900      -0.00533100       0.00482700       0.00302900
Rh       1.58099951       4.04335756      19.73464711  T        1      -0.00394000       0.00169800      -0.00925300      -0.00394000       0.00169800      -0.00925300
Rh       4.86010313       1.46870434      17.89850426  F        0       0.00000000       0.00000000       0.00000000       0.00000000       0.00000000       0.00000000
Rh       0.13061763       1.74054315      20.67064150  T        1      -0.00033300      -0.00112300      -0.00171700      -0.00033300      -0.00112300      -0.00171700
Rh      -0.09617844       6.09187794      18.47447777  F        0       0.00000000       0.00000000       0.00000000       0.00000000       0.00000000       0.00000000
Rh       3.87973691       5.75245496      19.48185193  T        1       0.00792300      -0.00644900      -0.00026800       0.00792300      -0.00644900      -0.00026800
Rh       3.16302347       6.01931715      15.00590038  F        0       0.00000000       0.00000000       0.00000000       0.00000000       0.00000000       0.00000000
Rh       2.39323568       2.44143844      16.70723343  F        0       0.00000000       0.00000000       0.00000000       0.00000000       0.00000000       0.00000000
Rh       4.62877083       8.37544346      14.14661598  F        0       0.00000000       0.00000000       0.00000000       0.00000000       0.00000000       0.00000000
Rh       0.92748845       0.08531203      17.56651878  F        0       0.00000000       0.00000000       0.00000000       0.00000000       0.00000000       0.00000000
Rh       0.78413934       4.36519289      15.24159622  F        0       0.00000000       0.00000000       0.00000000       0.00000000       0.00000000       0.00000000
Rh       4.77212000       4.09556293      16.47153854  F        0       0.00000000       0.00000000       0.00000000       0.00000000       0.00000000       0.00000000
Rh       4.04334116       4.29263258      11.77301884  F        0       0.00000000       0.00000000       0.00000000       0.00000000       0.00000000       0.00000000
Rh       3.27355361       0.71475369      13.47435284  F        0       0.00000000       0.00000000       0.00000000       0.00000000       0.00000000       0.00000000
Rh       5.50908852       6.64875889      10.91373444  F        0       0.00000000       0.00000000       0.00000000       0.00000000       0.00000000       0.00000000
Rh       0.69615608       6.99205160      13.81463051  F        0       0.00000000       0.00000000       0.00000000       0.00000000       0.00000000       0.00000000
Rh       1.66445708       2.63850808      12.00871468  F        0       0.00000000       0.00000000       0.00000000       0.00000000       0.00000000       0.00000000
Rh       5.65243769       2.36887789      13.23865604  F        0       0.00000000       0.00000000       0.00000000       0.00000000       0.00000000       0.00000000
Te       2.42981746       1.57322242      19.29235773  T        1       0.00853000       0.00094900      -0.01459700       0.00853000       0.00094900      -0.01459700
Te       1.63792116       6.51061786      20.60448742  T        1       0.00189300       0.00411000      -0.00284900       0.00189300       0.00411000      -0.00284900
Te       4.88370447       8.07217056      18.85622470  T        1      -0.00482500       0.01375900      -0.00093200      -0.00482500       0.01375900      -0.00093200
Te       5.51704190       3.80299125      19.12746469  T        1      -0.01281700       0.00371600      -0.00279100      -0.01281700       0.00371600      -0.00279100
Te       2.22230458       8.54708958      15.59706402  F        0       0.00000000       0.00000000       0.00000000       0.00000000       0.00000000       0.00000000
Te       2.33797073       5.09372044      17.47300720  F        0       0.00000000       0.00000000       0.00000000       0.00000000       0.00000000       0.00000000
Te       5.75354767       6.38358641      15.51674652  F        0       0.00000000       0.00000000       0.00000000       0.00000000       0.00000000       0.00000000
Te      -0.19728833       2.07716942      16.19638824  F        0       0.00000000       0.00000000       0.00000000       0.00000000       0.00000000       0.00000000
Te       3.10262227       6.82040501      12.36418247  F        0       0.00000000       0.00000000       0.00000000       0.00000000       0.00000000       0.00000000
Te       3.21828842       3.36703539      14.24012661  F        0       0.00000000       0.00000000       0.00000000       0.00000000       0.00000000       0.00000000
Te       0.05398775       4.65690136      12.68956470  F        0       0.00000000       0.00000000       0.00000000       0.00000000       0.00000000       0.00000000
Te       0.68302947       0.35048467      12.96350574  F        0       0.00000000       0.00000000       0.00000000       0.00000000       0.00000000       0.00000000
Rh       8.88016756       7.72014716      17.83159791  T        1      -0.01528400      -0.00883000      -0.00734300      -0.01528400      -0.00883000      -0.00734300
Rh       8.16558041       4.05952175      19.31070768  T        1       0.00048700      -0.00424900       0.01046500       0.00048700      -0.00424900       0.01046500
Rh      11.43998051       1.46870434      17.49280357  F        0       0.00000000       0.00000000       0.00000000       0.00000000       0.00000000       0.00000000
Rh       6.79555325       1.75766501      19.98947155  T        1      -0.00534500      -0.00455200      -0.00101500      -0.00534500      -0.00455200      -0.00101500
Rh       6.48369884       6.09187794      18.06877899  F        0       0.00000000       0.00000000       0.00000000       0.00000000       0.00000000       0.00000000
Rh      10.47852088       5.73871135      19.04752502  T        1      -0.01255200      -0.01623200       0.00357900      -0.01255200      -0.01623200       0.00357900
Rh       9.74290085       6.01931715      14.60020065  F        0       0.00000000       0.00000000       0.00000000       0.00000000       0.00000000       0.00000000
Rh       8.97311306       2.44143844      16.30153465  F        0       0.00000000       0.00000000       0.00000000       0.00000000       0.00000000       0.00000000
Rh      11.20864868       8.37544346      13.74091625  F        0       0.00000000       0.00000000       0.00000000       0.00000000       0.00000000       0.00000000
Rh       7.50736618       0.08531203      17.16081810  F        0       0.00000000       0.00000000       0.00000000       0.00000000       0.00000000       0.00000000
Rh       7.36401701       4.36519289      14.83589649  F        0       0.00000000       0.00000000       0.00000000       0.00000000       0.00000000       0.00000000
Rh      11.35199738       4.09556293      16.06583786  F        0       0.00000000       0.00000000       0.00000000       0.00000000       0.00000000       0.00000000
Rh      10.62321854       4.29263258      11.36731911  F        0       0.00000000       0.00000000       0.00000000       0.00000000       0.00000000       0.00000000
Rh       9.85343075       0.71475369      13.06865311  F        0       0.00000000       0.00000000       0.00000000       0.00000000       0.00000000       0.00000000
Rh      12.08896637       6.64875889      10.50803471  F        0       0.00000000       0.00000000       0.00000000       0.00000000       0.00000000       0.00000000
Rh       7.27603340       6.99205160      13.40893078  F        0       0.00000000       0.00000000       0.00000000       0.00000000       0.00000000       0.00000000
Rh       8.24433422       2.63850808      11.60301495  F        0       0.00000000       0.00000000       0.00000000       0.00000000       0.00000000       0.00000000
Rh      12.23231506       2.36887789      12.83295727  F        0       0.00000000       0.00000000       0.00000000       0.00000000       0.00000000       0.00000000
Te       9.08996901       1.57690026      18.90825877  T        1       0.00098500       0.00013800       0.00139400       0.00098500       0.00013800       0.00139400
Te       8.23477922       6.52279557      20.16570099  T        1      -0.00287800       0.00231600       0.00610100      -0.00287800       0.00231600       0.00610100
Te      11.46831935       8.08843738      18.44452601  T        1      -0.00544700       0.00516300      -0.01930900      -0.00544700       0.00516300      -0.01930900
Te      12.12503465       3.77937989      18.74383183  T        1       0.00547600       0.00192900      -0.02370900       0.00547600       0.00192900      -0.02370900
Te       8.80218220       8.54708958      15.19136429  F        0       0.00000000       0.00000000       0.00000000       0.00000000       0.00000000       0.00000000
Te       8.91784859       5.09372044      17.06730843  F        0       0.00000000       0.00000000       0.00000000       0.00000000       0.00000000       0.00000000
Te      12.33342457       6.38358641      15.11104679  F        0       0.00000000       0.00000000       0.00000000       0.00000000       0.00000000       0.00000000
Te       6.38258934       2.07716942      15.79068756  F        0       0.00000000       0.00000000       0.00000000       0.00000000       0.00000000       0.00000000
Te       9.68249989       6.82040501      11.95848274  F        0       0.00000000       0.00000000       0.00000000       0.00000000       0.00000000       0.00000000
Te       9.79816628       3.36703539      13.83442688  F        0       0.00000000       0.00000000       0.00000000       0.00000000       0.00000000       0.00000000
Te       6.63386536       4.65690136      12.28386497  F        0       0.00000000       0.00000000       0.00000000       0.00000000       0.00000000       0.00000000
Te       7.26290703       0.35048467      12.55780602  F        0       0.00000000       0.00000000       0.00000000       0.00000000       0.00000000       0.00000000
N        0.95735159       1.81736950      22.76958617  T        2       0.01288900      -0.00238800      -0.04434500       0.01288900      -0.00238800      -0.04434500
H        1.70455036       1.11138645      22.84921937  T        2       0.01148000       0.00765700      -0.06005100       0.01148000       0.00765700      -0.06005100
H        1.45163511       2.71779518      22.86207677  T        2       0.01385100       0.00121400      -0.06632400       0.01385100       0.00121400      -0.06632400
N        0.20603417       1.68328287      24.04115925  T        2      -0.00488900      -0.00386900      -0.08190300      -0.00488900      -0.00386900      -0.08190300
H       12.60491431       2.37889472      23.18520276  T        2      -0.00254500      -0.00668600      -0.10467600      -0.00254500      -0.00668600      -0.10467600
H       12.88386536       0.77194897      23.17794789  T        2      -0.00840900       0.02497500      -0.09827900      -0.00840900       0.02497500      -0.09827900
66
Lattice="13.159754753112793 0.0 -0.8113988041877747 -1.1116501092910767 8.633423805236816 -0.5190062522888184 0.0 0.0 32.96112823486328" Properties=species:S:1:pos:R:3:move_mask:L:1:tags:I:1:DFT_forces:R:3:forces:R:3 DFT_energy=-338.03399084 energy=-338.03399084 pbc="T T T"
Rh       2.28460112       7.73297601      18.25940203  T        1      -0.00276300       0.00133000      -0.00213200      -0.00276300       0.00133000      -0.00213200
Rh       1.58448511       4.04946047      19.73449783  T        1      -0.00533500       0.00055500       0.00296400      -0.00533500       0.00055500       0.00296400
Rh       4.86010313       1.46870434      17.89850426  F        0       0.00000000       0.00000000       0.00000000       0.00000000       0.00000000       0.00000000
Rh       0.15452409       1.75736162      20.73310036  T        1      -0.01246600      -0.00321700       0.03402100      -0.01246600      -0.00321700       0.03402100
Rh      -0.09617844       6.09187794      18.47447777  F        0       0.00000000       0.00000000       0.00000000       0.00000000       0.00000000       0.00000000
Rh       3.88222349       5.75799143      19.47964130  T        1       0.01187900      -0.00631900       0.00284000       0.01187900      -0.00631900       0.00284000
Rh       3.16302347       6.01931715      15.00590038  F        0       0.00000000       0.00000000       0.00000000       0.00000000       0.00000000       0.00000000
Rh       2.39323568       2.44143844      16.70723343  F        0       0.00000000       0.00000000       0.00000000       0.00000000       0.00000000       0.00000000
Rh       4.62877083       8.37544346      14.14661598  F        0       0.00000000       0.00000000       0.00000000       0.00000000       0.00000000       0.00000000
Rh       0.92748845       0.08531203      17.56651878  F        0       0.00000000       0.00000000       0.00000000       0.00000000       0.00000000       0.00000000
Rh       0.78413934       4.36519289      15.24159622  F        0       0.00000000       0.00000000       0.00000000       0.00000000       0.00000000       0.00000000
Rh       4.77212000       4.09556293      16.47153854  F        0       0.00000000       0.00000000       0.00000000       0.00000000       0.00000000       0.00000000
Rh       4.04334116       4.29263258      11.77301884  F        0       0.00000000       0.00000000       0.00000000       0.00000000       0.00000000       0.00000000
Rh       3.27355361       0.71475369      13.47435284  F        0       0.00000000       0.00000000       0.00000000       0.00000000       0.00000000       0.00000000
Rh       5.50908852       6.64875889      10.91373444  F        0       0.00000000       0.00000000       0.00000000       0.00000000       0.00000000       0.00000000
Rh       0.69615608       6.99205160      13.81463051  F        0       0.00000000       0.00000000       0.00000000       0.00000000       0.00000000       0.00000000
Rh       1.66445708       2.63850808      12.00871468  F        0       0.00000000       0.00000000       0.00000000       0.00000000       0.00000000       0.00000000
Rh       5.65243769       2.36887789      13.23865604  F        0       0.00000000       0.00000000       0.00000000       0.00000000       0.00000000       0.00000000
Te       2.41451277       1.56421190      19.31365428  T        1      -0.01947000      -0.00223000      -0.00173500      -0.01947000      -0.00223000      -0.00173500
Te       1.64035706       6.51580550      20.60051350  T        1      -0.00216500      -0.01088000       0.00155900      -0.00216500      -0.01088000       0.00155900
Te       4.88537370       8.07533628      18.85312979  T        1       0.00261400       0.00432800      -0.00283800       0.00261400       0.00432800      -0.00283800
Te       5.51643275       3.80439188      19.12863738  T        1      -0.00990600       0.00503800       0.00215600      -0.00990600       0.00503800       0.00215600
Te       2.22230458       8.54708958      15.59706402  F        0       0.00000000       0.00000000       0.00000000       0.00000000       0.00000000       0.00000000
Te       2.33797073       5.09372044      17.47300720  F        0       0.00000000       0.00000000       0.00000000       0.00000000       0.00000000       0.00000000
Te       5.75354767       6.38358641      15.51674652  F        0       0.00000000       0.00000000       0.00000000       0.00000000       0.00000000       0.00000000
Te      -0.19728833       2.07716942      16.19638824  F        0       0.00000000       0.00000000       0.00000000       0.00000000       0.00000000       0.00000000
Te       3.10262227       6.82040501      12.36418247  F        0       0.00000000       0.00000000       0.00000000       0.00000000       0.00000000       0.00000000
Te       3.21828842       3.36703539      14.24012661  F        0       0.00000000       0.00000000       0.00000000       0.00000000       0.00000000       0.00000000
Te       0.05398775       4.65690136      12.68956470  F        0       0.00000000       0.00000000       0.00000000       0.00000000       0.00000000       0.00000000
Te       0.68302947       0.35048467      12.96350574  F        0       0.00000000       0.00000000       0.00000000       0.00000000       0.00000000       0.00000000
Rh       8.89026675       7.72114220      17.82618759  T        1       0.00184800      -0.00300000      -0.00028400       0.00184800      -0.00300000      -0.00028400
Rh       8.16851475       4.06069744      19.31322785  T        1       0.00190700      -0.00419300       0.00313000       0.00190700      -0.00419300       0.00313000
Rh      11.43998051       1.46870434      17.49280357  F        0       0.00000000       0.00000000       0.00000000       0.00000000       0.00000000       0.00000000
Rh       6.79612551       1.75859907      19.98872384  T        1       0.00427300       0.01305000      -0.00005300       0.00427300       0.01305000      -0.00005300