86
Lattice="8.879983901977539 0.0 5.437421596384982e-16 -8.075774643569254e-16 13.188740730285645 -1.865169644355774 0.0 0.0 31.707883834838867" Properties=species:S:1:pos:R:3:move_mask:L:1:tags:I:1:DFT_forces:R:3:forces:R:3:magmoms:R:1 DFT_energy=-591.57795086 energy=-591.57795086 dipole="_JSON [[0.0, 0.0, 0.0]]" magmom=0.0 free_energy=-591.59619657 pbc="T T T"
Al       2.21999598       3.84671593      11.87491322  F        0       0.00000000       0.00000000       0.00000000       0.00033600       0.34735700      -0.56141000       0.00000000
Al       2.21999598      10.00146198      13.11835957  F        0       0.00000000       0.00000000       0.00000000       0.00111600      -0.07639500      -0.23709100       0.00000000
Al       2.21999598       2.96746659      16.22697639  F        0       0.00000000       0.00000000       0.00000000       0.00198400       0.14332900       0.46314700       0.00000000
Al       2.20865075       9.12134783      17.55957993  T        1       0.00048400       0.00847800      -0.00565200       0.00048400       0.00847800      -0.00565200       0.00000000
Al       2.22055671       1.98636728      20.42319322  T        1       0.00441800      -0.00232300      -0.00860800       0.00441800      -0.00232300      -0.00860800       0.00000000
Al       4.43999195       7.36371374      10.32060528  F        0       0.00000000       0.00000000       0.00000000      -0.00010700      -0.59990800      -0.02308100       0.00000000
Al       4.43999195       0.32971853      13.42922115  F        0       0.00000000       0.00000000       0.00000000       0.00081300       0.02811500      -0.48519100       0.00000000
Al      -0.00000000       6.48446417      14.67266750  F        0       0.00000000       0.00000000       0.00000000       0.00282800      -0.15418600      -0.18100700       0.00000000
Al       4.43999195      12.63920975      15.91611385  F        0       0.00000000       0.00000000       0.00000000       0.00008200       0.04083700       0.18706100       0.00000000
Al       4.44745185       5.56297876      19.08785166  T        1      -0.00976100       0.00674100      -0.01245900      -0.00976100       0.00674100      -0.01245900       0.00000000
Ir       4.43999195       4.50615311      16.53783798  F        0       0.00000000       0.00000000       0.00000000      -0.00265700       0.07042800      -0.22977900       0.00000000
Ir       4.43704001      10.57158446      17.72371750  T        1       0.00241500      -0.00726600       0.00333300       0.00241500      -0.00726600       0.00333300       0.00000000
Ir       4.43999195      12.41939735       9.07715893  F        0       0.00000000       0.00000000       0.00000000      -0.00084200       0.67758400       1.26025500       0.00000000
Ir       4.43999195       5.38540220      12.18577480  F        0       0.00000000       0.00000000       0.00000000      -0.00059000      -0.54890000      -0.64737600       0.00000000
Ir       4.43999195      11.54014778      13.42922115  F        0       0.00000000       0.00000000       0.00000000       0.00095600      -0.05134500      -0.19468900       0.00000000
Ir      -0.00000000       7.58352566      17.15956116  F        0       0.00000000       0.00000000       0.00000000       0.02450100       0.08586000      -0.02645500       0.00000000
Ir       4.43891717       0.55508574      20.11856070  T        1      -0.00149400       0.01211600       0.00484600      -0.00149400       0.01211600       0.00484600       0.00000000
Ir       4.43999195       2.30802965      11.56405163  F        0       0.00000000       0.00000000       0.00000000       0.00005800       0.80391300       1.10754300       0.00000000
Ir       4.43999195       8.46277523      12.80749798  F        0       0.00000000       0.00000000       0.00000000      -0.00237400       0.17352200       0.18658600       0.00000000
Ir       4.43999195       1.42878020      15.91611385  F        0       0.00000000       0.00000000       0.00000000      -0.00337400       0.18812100       0.40486200       0.00000000
Ir       2.21999598       8.02315044      14.98352909  F        0       0.00000000       0.00000000       0.00000000       0.00860100      -0.02565100       0.04788100       0.00000000
Ir       2.21999598       0.98915553      18.09214592  F        0       0.00000000       0.00000000       0.00000000      -0.00570400      -0.61340600      -0.53335800       0.00000000
Ir       2.23188443       7.00223114      19.19999384  T        1      -0.00522400      -0.00142500      -0.00947100      -0.00522400      -0.00142500      -0.00947100       0.00000000
Ir       2.21999598       8.90240002      10.63146687  F        0       0.00000000       0.00000000       0.00000000      -0.00036100      -0.74235200       0.74422600       0.00000000
Ir       2.21999598       1.86840498      13.74008274  F        0       0.00000000       0.00000000       0.00000000       0.00050900      -0.18574300      -0.02147600       0.00000000
Ir       2.21999598       4.94577789      14.36180592  F        0       0.00000000       0.00000000       0.00000000      -0.00052600      -0.11746400      -0.06536900       0.00000000
Ir       2.21999598      11.10052299      15.60525227  F        0       0.00000000       0.00000000       0.00000000       0.00219700       0.23048000       0.34364500       0.00000000
Ir       2.22277696       4.11083453      18.76731192  T        1       0.00011200      -0.02019400       0.03504500       0.00011200      -0.02019400       0.03504500       0.00000000
Ir       2.21999598       5.82502699      10.00974369  F        0       0.00000000       0.00000000       0.00000000       0.00109000       0.99842700       2.06912300       0.00000000
Ir       2.21999598      11.97977257      11.25319004  F        0       0.00000000       0.00000000       0.00000000      -0.00069200       0.03543700      -0.06155300       0.00000000
Sc       4.44270734       8.60663687      19.60388557  T        1       0.00298800       0.03379000      -0.01913800       0.00298800       0.03379000      -0.01913800       0.00000000
Sc       4.43999195      10.44108677      10.94232845  F        0       0.00000000       0.00000000       0.00000000      -0.00021700       0.06699000      -0.98803000       0.00000000
Sc       4.43999195       3.40709138      14.05094433  F        0       0.00000000       0.00000000       0.00000000      -0.00066300      -0.06794300      -0.43841300       0.00000000
Sc       4.43999195       9.56183720      15.29439068  F        0       0.00000000       0.00000000       0.00000000      -0.00942300       0.03432400       0.01395000       0.00000000
Sc       4.43918443       2.60638013      18.52827084  T        1       0.00060500       0.00234900       0.00158300       0.00060500       0.00234900       0.00158300       0.00000000
Sc       2.21999598       6.92408895      12.49663639  F        0       0.00000000       0.00000000       0.00000000       0.00011200      -0.15103000      -1.06317600       0.00000000
Sc       2.21999598      13.07883453      13.74008274  F        0       0.00000000       0.00000000       0.00000000       0.00070200      -0.08851100      -0.02669600       0.00000000
Sc       2.21999598       6.04483938      16.84869957  F        0       0.00000000       0.00000000       0.00000000      -0.00168100      -0.20237300      -0.26961700       0.00000000
Sc       2.21769483      12.09300117      18.28740474  T        1       0.00342300       0.01357300       0.01664300       0.00342300       0.01357300       0.01664300       0.00000000
Sc       2.21999598       0.76934320      11.25319004  F        0       0.00000000       0.00000000       0.00000000       0.00039400      -0.31543900      -0.77126100       0.00000000
Al       6.65998745       3.84671593      11.87491322  F        0       0.00000000       0.00000000       0.00000000      -0.00017500       0.34719200      -0.55904100       0.00000000
Al       6.65998745      10.00146198      13.11835957  F        0       0.00000000       0.00000000       0.00000000      -0.00044100      -0.07707100      -0.23888600       0.00000000
Al       6.65998745       2.96746659      16.22697639  F        0       0.00000000       0.00000000       0.00000000      -0.00180200       0.14415500       0.46623100       0.00000000
Al       6.66636811       9.12916758      17.54880718  T        1      -0.00322500      -0.00281200      -0.00775400      -0.00322500      -0.00281200      -0.00775400       0.00000000
Al       6.65641175       1.99321639      20.42223962  T        1       0.00483300      -0.00218400      -0.00812300       0.00483300      -0.00218400      -0.00812300       0.00000000
Al       0.00000000       7.36371374      10.32060528  F        0       0.00000000       0.00000000       0.00000000       0.00033700      -0.59913200      -0.02210900       0.00000000
Al       0.00000000       0.32971853      13.42922115  F        0       0.00000000       0.00000000       0.00000000      -0.00032000       0.02879300      -0.48437300       0.00000000
Al       4.43999195       6.48446417      14.67266750  F        0       0.00000000       0.00000000       0.00000000      -0.00087800      -0.17518100      -0.22580800       0.00000000
Al      -0.00000000      12.63920975      15.91611385  F        0       0.00000000       0.00000000       0.00000000       0.00036600       0.05261200       0.18656500       0.00000000
Al       8.87969433       5.57734764      19.07075889  T        1       0.00223900       0.00109500      -0.01606100       0.00223900       0.00109500      -0.01606100       0.00000000
Ir       0.00000000       4.50615311      16.53783798  F        0       0.00000000       0.00000000       0.00000000       0.00525100       0.06875100      -0.22674500       0.00000000
Ir      -0.00037003      10.57870304      17.71789577  T        1      -0.00685900      -0.00849900       0.00807000      -0.00685900      -0.00849900       0.00807000       0.00000000
Ir      -0.00000000      12.41939735       9.07715893  F        0       0.00000000       0.00000000       0.00000000       0.00119600       0.67780800       1.26013400       0.00000000
Ir       0.00000000       5.38540220      12.18577480  F        0       0.00000000       0.00000000       0.00000000       0.00073300      -0.54759000      -0.64465100       0.00000000
Ir      -0.00000000      11.54014778      13.42922115  F        0       0.00000000       0.00000000       0.00000000      -0.00151800      -0.05238600      -0.19802100       0.00000000
Ir       4.43999195       7.58352566      17.15956116  F        0       0.00000000       0.00000000       0.00000000      -0.00188700       0.07078100      -0.02464400       0.00000000
Ir       8.87933981       0.56078138      20.11814569  T        1      -0.00223400      -0.00212800       0.00475800      -0.00223400      -0.00212800       0.00475800       0.00000000
Ir       0.00000000       2.30802965      11.56405163  F        0       0.00000000       0.00000000       0.00000000      -0.00008600       0.80351000       1.10830200       0.00000000
Ir       0.00000000       8.46277523      12.80749798  F        0       0.00000000       0.00000000       0.00000000       0.00269800       0.17315900       0.18159300       0.00000000
Ir       0.00000000       1.42878020      15.91611385  F        0       0.00000000       0.00000000       0.00000000       0.00177100       0.18987200       0.40847600       0.00000000
Ir       6.65998745       8.02315044      14.98352909  F        0       0.00000000       0.00000000       0.00000000      -0.00641000      -0.02296300       0.02657600       0.00000000
Ir       6.65998745       0.98915553      18.09214592  F        0       0.00000000       0.00000000       0.00000000       0.00469600      -0.60847200      -0.52725300       0.00000000
Ir       6.66240918       7.01803794      19.18586311  T        1      -0.00025700       0.01418700       0.00633300      -0.00025700       0.01418700       0.00633300       0.00000000
Ir       6.65998745       8.90240002      10.63146687  F        0       0.00000000       0.00000000       0.00000000      -0.00060600      -0.74733100       0.74747500       0.00000000
Ir       6.65998745       1.86840498      13.74008274  F        0       0.00000000       0.00000000       0.00000000      -0.00002900      -0.18576300      -0.02005700       0.00000000
Ir       6.65998745       4.94577789      14.36180592  F        0       0.00000000       0.00000000       0.00000000      -0.00006900      -0.11955300      -0.08160800       0.00000000
Ir       6.65998745      11.10052299      15.60525227  F        0       0.00000000       0.00000000       0.00000000      -0.01152000       0.24041200       0.33598400       0.00000000
Ir       6.65944945       4.10361964      18.76412896  T        1       0.00267700      -0.00767700       0.01778600       0.00267700      -0.00767700       0.01778600       0.00000000
Ir       6.65998745       5.82502699      10.00974369  F        0       0.00000000       0.00000000       0.00000000      -0.00127100       1.00084200       2.07006200       0.00000000
Ir       6.65998745      11.97977257      11.25319004  F        0       0.00000000       0.00000000       0.00000000       0.00088100       0.03491300      -0.06193400       0.00000000
Sc       8.85449851       8.64315135      19.66729345  T        1      -0.01917100       0.00548000      -0.00024100      -0.01917100       0.00548000      -0.00024100       0.00000000
Sc      -0.00000000      10.44108677      10.94232845  F        0       0.00000000       0.00000000       0.00000000       0.00007100       0.06641800      -0.98791200       0.00000000
Sc       0.00000000       3.40709138      14.05094433  F        0       0.00000000       0.00000000       0.00000000       0.00065100      -0.07018600      -0.44380600       0.00000000
Sc      -0.00000000       9.56183720      15.29439068  F        0       0.00000000       0.00000000       0.00000000       0.00602600       0.02793700       0.01769200       0.00000000
Sc       0.00118915       2.61053490      18.52775664  T        1       0.00343600      -0.00200300       0.00806500       0.00343600      -0.00200300       0.00806500       0.00000000
Sc       6.65998745       6.92408895      12.49663639  F        0       0.00000000       0.00000000       0.00000000       0.00006500      -0.15241800      -1.06522000       0.00000000
Sc       6.65998745      13.07883453      13.74008274  F        0       0.00000000       0.00000000       0.00000000      -0.00070400      -0.08281900      -0.03049000       0.00000000
Sc       6.65998745       6.04483938      16.84869957  F        0       0.00000000       0.00000000       0.00000000      -0.00002500      -0.20254500      -0.24489900       0.00000000
Sc       6.65993646      12.09500957      18.28556479  T        1      -0.00269600       0.01561400       0.00924000      -0.00269600       0.01561400       0.00924000       0.00000000
Sc       6.65998745       0.76934320      11.25319004  F        0       0.00000000       0.00000000       0.00000000      -0.00061500      -0.31570700      -0.77039900       0.00000000
C        0.11326681       7.94516465      22.99661577  T        2      -0.00449400      -0.00757800       0.00746300      -0.00449400      -0.00757800       0.00746300       0.00000000
H        0.82716001       7.94218795      23.83785946  T        2      -0.01383500       0.00008700      -0.00449100      -0.01383500       0.00008700      -0.00449100       0.00000000
H        8.12708307       8.57391803      23.25244489  T        2       0.02198300       0.00018100       0.00364500       0.02198300       0.00018100       0.00364500       0.00000000
H        8.65417346       6.91861337      22.77637478  T        2      -0.00095300       0.00894400       0.00784300      -0.00095300       0.00894400       0.00784300       0.00000000
H        1.46446319       7.93538045      21.48348631  T        2       0.01367600       0.00308400      -0.00398300       0.01367600       0.00308400      -0.00398300       0.00000000
O        0.74050390       8.54467021      21.82406019  T        2      -0.00654100      -0.01374800       0.00684800      -0.00654100      -0.01374800       0.00684800       0.00000000
86
Lattice="8.879983901977539 0.0 5.437421596384982e-16 -8.075774643569254e-16 13.188740730285645 -1.865169644355774 0.0 0.0 31.707883834838867" Properties=species:S:1:pos:R:3:move_mask:L:1:tags:I:1:DFT_forces:R:3:forces:R:3 DFT_energy=-590.80786066 energy=-590.80786066 pbc="T T T"
Al       2.21999598       3.84671593      11.87491322  F        0       0.00000000       0.00000000       0.00000000       0.00000000       0.00000000       0.00000000
Al       2.21999598      10.00146198      13.11835957  F        0       0.00000000       0.00000000       0.00000000       0.00000000       0.00000000       0.00000000
Al       2.21999598       2.96746659      16.22697639  F        0       0.00000000       0.00000000       0.00000000       0.00000000       0.00000000       0.00000000
Al       2.21953511       9.13135773      17.54377521  T        1       0.00100700      -0.00211300       0.00198000       0.00100700      -0.00211300       0.00198000
Al       2.21878446       2.00053718      20.42063448  T        1       0.00266900      -0.00282100       0.00622900       0.00266900      -0.00282100       0.00622900
Al       4.43999195       7.36371374      10.32060528  F        0       0.00000000       0.00000000       0.00000000       0.00000000       0.00000000       0.00000000
Al       4.43999195       0.32971853      13.42922115  F        0       0.00000000       0.00000000       0.00000000       0.00000000       0.00000000       0.00000000
Al      -0.00000000       6.48446417      14.67266750  F        0       0.00000000       0.00000000       0.00000000       0.00000000       0.00000000       0.00000000
Al       4.43999195      12.63920975      15.91611385  F        0       0.00000000       0.00000000       0.00000000       0.00000000       0.00000000       0.00000000
Al       4.43810310       5.56613201      19.08075721  T        1       0.00551900      -0.00547600       0.00127900       0.00551900      -0.00547600       0.00127900
Ir       4.43999195       4.50615311      16.53783798  F        0       0.00000000       0.00000000       0.00000000       0.00000000       0.00000000       0.00000000
Ir       4.44015444      10.57601890      17.72577877  T        1      -0.00235200      -0.00328600      -0.00157500      -0.00235200      -0.00328600      -0.00157500
Ir       4.43999195      12.41939735       9.07715893  F        0       0.00000000       0.00000000       0.00000000       0.00000000       0.00000000       0.00000000
Ir       4.43999195       5.38540220      12.18577480  F        0       0.00000000       0.00000000       0.00000000       0.00000000       0.00000000       0.00000000
Ir       4.43999195      11.54014778      13.42922115  F        0       0.00000000       0.00000000       0.00000000       0.00000000       0.00000000       0.00000000
Ir      -0.00000000       7.58352566      17.15956116  F        0       0.00000000       0.00000000       0.00000000       0.00000000       0.00000000       0.00000000
Ir       4.43960980       0.55942481      20.11843250  T        1      -0.00065800       0.00137500       0.00286200      -0.00065800       0.00137500       0.00286200
Ir       4.43999195       2.30802965      11.56405163  F        0       0.00000000       0.00000000       0.00000000       0.00000000       0.00000000       0.00000000
Ir       4.43999195       8.46277523      12.80749798  F        0       0.00000000       0.00000000       0.00000000       0.00000000       0.00000000       0.00000000
Ir       4.43999195       1.42878020      15.91611385  F        0       0.00000000       0.00000000       0.00000000       0.00000000       0.00000000       0.00000000
Ir       2.21999598       8.02315044      14.98352909  F        0       0.00000000       0.00000000       0.00000000       0.00000000       0.00000000       0.00000000
Ir       2.21999598       0.98915553      18.09214592  F        0       0.00000000       0.00000000       0.00000000       0.00000000       0.00000000       0.00000000
Ir       2.21915831       7.02199939      19.18574574  T        1      -0.00034100      -0.00103000      -0.00001400      -0.00034100      -0.00103000      -0.00001400
Ir       2.21999598       8.90240002      10.63146687  F        0       0.00000000       0.00000000       0.00000000       0.00000000       0.00000000       0.00000000
Ir       2.21999598       1.86840498      13.74008274  F        0       0.00000000       0.00000000       0.00000000       0.00000000       0.00000000       0.00000000
Ir       2.21999598       4.94577789      14.36180592  F        0       0.00000000       0.00000000       0.00000000       0.00000000       0.00000000       0.00000000
Ir       2.21999598      11.10052299      15.60525227  F        0       0.00000000       0.00000000       0.00000000       0.00000000       0.00000000       0.00000000
Ir       2.21889028       4.10393242      18.76290346  T        1       0.00448700       0.00199200      -0.00193300       0.00448700       0.00199200      -0.00193300
Ir       2.21999598       5.82502699      10.00974369  F        0       0.00000000       0.00000000       0.00000000       0.00000000       0.00000000       0.00000000
Ir       2.21999598      11.97977257      11.25319004  F        0       0.00000000       0.00000000       0.00000000       0.00000000       0.00000000       0.00000000
Sc       4.43773602       8.61946325      19.60656827  T        1       0.00486700       0.00057200      -0.00321200       0.00486700       0.00057200      -0.00321200
Sc       4.43999195      10.44108677      10.94232845  F        0       0.00000000       0.00000000       0.00000000       0.00000000       0.00000000       0.00000000
Sc       4.43999195       3.40709138      14.05094433  F        0       0.00000000       0.00000000       0.00000000       0.00000000       0.00000000       0.00000000
Sc       4.43999195       9.56183720      15.29439068  F        0       0.00000000       0.00000000       0.00000000       0.00000000       0.00000000       0.00000000
Sc       4.43961140       2.60797867      18.52858752  T        1       0.00169300       0.01131500      -0.00369900       0.00169300       0.01131500      -0.00369900
Sc       2.21999598       6.92408895      12.49663639  F        0       0.00000000       0.00000000       0.00000000       0.00000000       0.00000000       0.00000000
Sc       2.21999598      13.07883453      13.74008274  F        0       0.00000000       0.00000000       0.00000000       0.00000000       0.00000000       0.00000000
Sc       2.21999598       6.04483938      16.84869957  F        0       0.00000000       0.00000000       0.00000000       0.00000000       0.00000000       0.00000000
Sc       2.22001765      12.10061143      18.29138758  T        1      -0.00218900      -0.00367100      -0.00050300      -0.00218900      -0.00367100      -0.00050300
Sc       2.21999598       0.76934320      11.25319004  F        0       0.00000000       0.00000000       0.00000000       0.00000000       0.00000000       0.00000000
Al       6.65998745       3.84671593      11.87491322  F        0       0.00000000       0.00000000       0.00000000       0.00000000       0.00000000       0.00000000
Al       6.65998745      10.00146198      13.11835957  F        0       0.00000000       0.00000000       0.00000000       0.00000000       0.00000000       0.00000000
Al       6.65998745       2.96746659      16.22697639  F        0       0.00000000       0.00000000       0.00000000       0.00000000       0.00000000       0.00000000
Al       6.66068054       9.13085232      17.54523868  T        1      -0.00558800      -0.00288800       0.00092600      -0.00558800      -0.00288800       0.00092600
Al       6.65861437       1.99934594      20.42164907  T        1       0.00392600      -0.00084800       0.00074000       0.00392600      -0.00084800       0.00074000
Al       0.00000000       7.36371374      10.32060528  F        0       0.00000000       0.00000000       0.00000000       0.00000000       0.00000000       0.00000000
Al       0.00000000       0.32971853      13.42922115  F        0       0.00000000       0.00000000       0.00000000       0.00000000       0.00000000       0.00000000
Al       4.43999195       6.48446417      14.67266750  F        0       0.00000000       0.00000000       0.00000000       0.00000000       0.00000000       0.00000000
Al      -0.00000000      12.63920975      15.91611385  F        0       0.00000000       0.00000000       0.00000000       0.00000000       0.00000000       0.00000000
Al       8.87989576       5.56578460      19.08074983  T        1      -0.00250500      -0.00250500       0.00169600      -0.00250500      -0.00250500       0.00169600
Ir       0.00000000       4.50615311      16.53783798  F        0       0.00000000       0.00000000       0.00000000       0.00000000       0.00000000       0.00000000
Ir       8.87952527      10.57583500      17.72587493  T        1       0.00190500      -0.00219700      -0.00233100       0.00190500      -0.00219700      -0.00233100
Ir      -0.00000000      12.41939735       9.07715893  F        0       0.00000000       0.00000000       0.00000000       0.00000000       0.00000000       0.00000000
Ir       0.00000000       5.38540220      12.18577480  F        0       0.00000000       0.00000000       0.00000000       0.00000000       0.00000000       0.00000000
Ir      -0.00000000      11.54014778      13.42922115  F        0       0.00000000       0.00000000       0.00000000       0.00000000       0.00000000       0.00000000
Ir       4.43999195       7.58352566      17.15956116  F        0       0.00000000       0.00000000       0.00000000       0.00000000       0.00000000       0.00000000
Ir       8.87921906       0.55909430      20.11784514  T        1       0.00074600       0.00341700       0.00297300       0.00074600       0.00341700       0.00297300
Ir       0.00000000       2.30802965      11.56405163  F        0       0.00000000       0.00000000       0.00000000       0.00000000       0.00000000       0.00000000
Ir       0.00000000       8.46277523      12.80749798  F        0       0.00000000       0.00000000       0.00000000       0.00000000       0.00000000       0.00000000
Ir       0.00000000       1.42878020      15.91611385  F        0       0.00000000       0.00000000       0.00000000       0.00000000       0.00000000       0.00000000
Ir       6.65998745       8.02315044      14.98352909  F        0       0.00000000       0.00000000       0.00000000       0.00000000       0.00000000       0.00000000
Ir       6.65998745       0.98915553      18.09214592  F        0       0.00000000       0.00000000       0.00000000       0.00000000       0.00000000       0.00000000
Ir       6.65889413       7.02140931      19.18759767  T        1       0.00224000       0.00038500       0.00008000       0.00224000       0.00038500       0.00008000
Ir       6.65998745       8.90240002      10.63146687  F        0       0.00000000       0.00000000       0.00000000       0.00000000       0.00000000       0.00000000
Ir       6.65998745       1.86840498      13.74008274  F        0       0.00000000       0.00000000       0.00000000       0.00000000       0.00000000       0.00000000
Ir       6.65998745       4.94577789      14.36180592  F        0       0.00000000       0.00000000       0.00000000       0.00000000       0.00000000       0.00000000
Ir       6.65998745      11.10052299      15.60525227  F        0       0.00000000       0.00000000       0.00000000       0.00000000       0.00000000       0.00000000
Ir       6.65904620       4.10565128      18.76495246  T        1       0.00088000      -0.00008200      -0.00633000       0.00088000      -0.00008200      -0.00633000
Ir       6.65998745       5.82502699      10.00974369  F        0       0.00000000       0.00000000       0.00000000       0.00000000       0.00000000       0.00000000
Ir       6.65998745      11.97977257      11.25319004  F        0       0.00000000       0.00000000       0.00000000       0.00000000       0.00000000       0.00000000
Sc       8.88057456       8.61859585      19.60726956  T        1      -0.00252800       0.00286700       0.00944400      -0.00252800       0.00286700       0.00944400
Sc      -0.00000000      10.44108677      10.94232845  F        0       0.00000000       0.00000000       0.00000000       0.00000000       0.00000000       0.00000000
Sc       0.00000000       3.40709138      14.05094433  F        0       0.00000000       0.00000000       0.00000000       0.00000000       0.00000000       0.00000000
Sc      -0.00000000       9.56183720      15.29439068  F        0       0.00000000       0.00000000       0.00000000       0.00000000       0.00000000       0.00000000
Sc      -0.00084513       2.60852723      18.52840605  T        1      -0.00355900       0.00545900      -0.00055800      -0.00355900       0.00545900      -0.00055800
Sc       6.65998745       6.92408895      12.49663639  F        0       0.00000000       0.00000000       0.00000000       0.00000000       0.00000000       0.00000000
Sc       6.65998745      13.07883453      13.74008274  F        0       0.00000000       0.00000000       0.00000000       0.00000000       0.00000000       0.00000000
Sc       6.65998745       6.04483938      16.84869957  F        0       0.00000000       0.00000000       0.00000000       0.00000000       0.00000000       0.00000000
Sc       6.65972532      12.09991285      18.29198290  T        1      -0.00124400      -0.00055200      -0.00179600      -0.00124400      -0.00055200      -0.00179600
Sc       6.65998745       0.76934320      11.25319004  F        0       0.00000000       0.00000000       0.00000000       0.00000000       0.00000000       0.00000000