87
Lattice="10.149133682250977 0.0 -5.859604835510254 -5.074566841125488 13.320892333984375 -2.929802417755127 0.0 0.0 41.017234802246094" Properties=species:S:1:pos:R:3:move_mask:L:1:tags:I:1:DFT_forces:R:3:forces:R:3:magmoms:R:1 DFT_energy=-376.4313003 energy=-376.4313003 dipole="_JSON [[0.0, 0.0, 0.0]]" magmom=0.0 free_energy=-376.43315363 pbc="T T T"
Ni      -0.84576112       2.22014880      15.41634178  F        0       0.00000000       0.00000000       0.00000000       0.49235600       0.57311000       0.37408200       0.00000000
Ni      -1.69152224      11.10074425      13.95143986  F        0       0.00000000       0.00000000       0.00000000       0.15635100      -0.18620800      -0.26540500       0.00000000
Ni       0.84576112      11.10074425       9.55673695  F        0       0.00000000       0.00000000       0.00000000       0.53732900      -0.24496600       0.94030200       0.00000000
Ni      -4.22880554      11.10074425      15.41634178  F        0       0.00000000       0.00000000       0.00000000      -0.31679400      -0.19019300       0.00809400       0.00000000
Ni       0.00000000       6.66044617      16.88124275  F        0       0.00000000       0.00000000       0.00000000       0.07644500       0.26741300      -0.15681800       0.00000000
Ni      -2.53728342       6.66044617      15.41634178  F        0       0.00000000       0.00000000       0.00000000       0.27316100       0.69157300       0.47997200       0.00000000
Ni       2.53728342       6.66044617      15.41634178  F        0       0.00000000       0.00000000       0.00000000      -0.18510300       0.25581000      -0.01376800       0.00000000
Ni       1.69152224       2.22014880      13.95143986  F        0       0.00000000       0.00000000       0.00000000       0.08152700       0.57079700       0.61127100       0.00000000
Ni      -0.84576112       2.22014880      18.34614372  F        0       0.00000000       0.00000000       0.00000000       0.21293400      -0.08183800       0.33601000       0.00000000
Bi      -1.69152224      11.10074425      11.02163792  F        0       0.00000000       0.00000000       0.00000000       0.19388500       0.39204500       0.32760500       0.00000000
Bi       0.00000000       0.00000000      19.81104469  F        0       0.00000000       0.00000000       0.00000000      -0.03771300      -0.01045600      -0.08268200       0.00000000
Bi       0.00000000       6.66044617      13.95143986  F        0       0.00000000       0.00000000       0.00000000       0.14337300      -0.74863300       0.26175400       0.00000000
Bi      -3.38304448       8.88059521      13.95143986  F        0       0.00000000       0.00000000       0.00000000      -0.16964700       0.11291500      -0.30396400       0.00000000
Bi       1.69152224       2.22014880      16.88124275  F        0       0.00000000       0.00000000       0.00000000      -0.31838600      -0.08786000      -0.55017900       0.00000000
Bi      -1.69152224       4.44029760      16.88124275  F        0       0.00000000       0.00000000       0.00000000      -0.36351600      -0.44268500      -0.65239100       0.00000000
S       -1.69152224       8.07557869      16.88124275  F        0       0.00000000       0.00000000       0.00000000      -0.04146900      -0.30641900      -0.06537700       0.00000000
S        3.38304448       0.80501676      13.95143986  F        0       0.00000000       0.00000000       0.00000000      -0.39485700       0.17824600      -0.71515000       0.00000000
S        0.00000000       3.63528085      13.95143986  F        0       0.00000000       0.00000000       0.00000000      -0.05938000      -0.80071200      -0.10240200       0.00000000
S        0.00000000       9.68561172      13.95143986  F        0       0.00000000       0.00000000       0.00000000      -0.00076200       0.21992400       0.00637600       0.00000000
S       -3.38304448      12.51587582      13.95143986  F        0       0.00000000       0.00000000       0.00000000      -0.21852900      -0.24284100      -0.37748500       0.00000000
S        1.69152224       5.24531412      16.88124275  F        0       0.00000000       0.00000000       0.00000000       0.06409600       0.29059300       0.10477400       0.00000000
Ni      -0.84576112       2.22014880      21.27594566  F        0       0.00000000       0.00000000       0.00000000       0.23919900      -0.00295500      -0.04764100       0.00000000
Ni      -1.72249277      11.20618449      19.63593634  T        1      -0.00621100       0.00402800      -0.00361000      -0.00621100       0.00402800      -0.00361000       0.00000000
Ni       0.84576112      11.10074425      15.41634178  F        0       0.00000000       0.00000000       0.00000000      -0.02623900      -0.01367600      -0.04372500       0.00000000
Ni       5.78896318      11.16609337      15.28776201  T        1       0.01190900       0.00361000      -0.00409300       0.01190900       0.00361000      -0.00409300       0.00000000
Ni      -0.05539100       6.52768532      22.54244401  T        1      -0.00692900       0.00792000       0.01024200      -0.00692900       0.00792000       0.01024200       0.00000000
Ni      -2.53728342       6.66044617      21.27594566  F        0       0.00000000       0.00000000       0.00000000      -0.06977400      -0.17628500      -0.13265800       0.00000000
Ni       2.38777545       6.55647330      21.15285283  T        1      -0.00402000       0.00447600      -0.00552800      -0.00402000       0.00447600      -0.00552800       0.00000000
Ni       1.69152224       2.22014880      19.81104469  F        0       0.00000000       0.00000000       0.00000000      -0.15886600      -0.04541900       0.11111800       0.00000000
Ni       9.27775060       2.08642091      18.35383650  T        1       0.00717500      -0.00934600      -0.00611300       0.00717500      -0.00934600      -0.00611300       0.00000000
Bi      -1.69152224      11.10074425      16.88124275  F        0       0.00000000       0.00000000       0.00000000      -0.04495100      -0.17799000      -0.08612100       0.00000000
Bi       4.99344606      13.24093098      16.75564650  T        1      -0.00621800       0.00298500      -0.00676400      -0.00621800       0.00298500      -0.00676400       0.00000000
Bi       0.04710624       7.21718134      19.88015748  T        1       0.00328600       0.00526200       0.01416700       0.00328600       0.00526200       0.01416700       0.00000000
Bi      -3.38304448       8.88059521      19.81104469  F        0       0.00000000       0.00000000       0.00000000       0.15472600       0.09975000       0.21292500       0.00000000
Bi       1.83160995       2.61622318      22.53001298  T        1      -0.00590400      -0.00328900       0.00635200      -0.00590400      -0.00328900       0.00635200       0.00000000
Bi      -1.69152224       4.44029760      22.74084663  F        0       0.00000000       0.00000000       0.00000000      -0.09971800       0.32208000      -0.19802300       0.00000000
S       -1.64960946       8.00164857      22.80009761  T        1      -0.01182500      -0.01963300      -0.01343500      -0.01182500      -0.01963300      -0.01343500       0.00000000
S        3.38304448       0.80501676      19.81104469  F        0       0.00000000       0.00000000       0.00000000      -0.31535500      -0.46702100      -0.57055200       0.00000000
S        0.00000000       3.63528085      19.81104469  F        0       0.00000000       0.00000000       0.00000000      -0.07246400      -0.19767700      -0.08496100       0.00000000
S        0.10324835      10.01386286      19.99753055  T        1       0.00072000       0.00648200      -0.00484200       0.00072000       0.00648200      -0.00484200       0.00000000
S       -3.39642467      12.56820797      19.80140265  T        1       0.00743400      -0.00301500      -0.00004200       0.00743400      -0.00301500      -0.00004200       0.00000000
S        1.75709961       5.40734950      22.87239210  T        1      -0.01203500      -0.00826300      -0.00479800      -0.01203500      -0.00826300      -0.00479800       0.00000000
Ni       4.22880554       2.22014880      12.48653889  F        0       0.00000000       0.00000000       0.00000000       0.46516500       0.57762100       0.36669400       0.00000000
Ni       3.38304448      11.10074425      11.02163792  F        0       0.00000000       0.00000000       0.00000000       0.16268300      -0.18011500      -0.26974600       0.00000000
Ni      -4.22880602      11.10074425      12.48653889  F        0       0.00000000       0.00000000       0.00000000       0.53839100      -0.22893500       0.93384100       0.00000000
Ni       0.84576112      11.10074425      12.48653889  F        0       0.00000000       0.00000000       0.00000000      -0.31780700      -0.17856900      -0.00339900       0.00000000
Ni       5.07456684       6.66044617      13.95143986  F        0       0.00000000       0.00000000       0.00000000       0.08375900       0.26505900      -0.14605900       0.00000000
Ni       2.53728342       6.66044617      12.48653889  F        0       0.00000000       0.00000000       0.00000000       0.27762700       0.69130400       0.47913800       0.00000000
Ni      -2.53728390       6.66044617      18.34614372  F        0       0.00000000       0.00000000       0.00000000      -0.16484900       0.27590400      -0.00106600       0.00000000
Ni       6.76608896       2.22014880      11.02163792  F        0       0.00000000       0.00000000       0.00000000       0.08272700       0.57737700       0.58498200       0.00000000
Ni       4.22880554       2.22014880      15.41634178  F        0       0.00000000       0.00000000       0.00000000       0.18865400      -0.08879300       0.34538900       0.00000000
Bi       3.38304448      11.10074425       8.09183502  F        0       0.00000000       0.00000000       0.00000000       0.18163600       0.39959800       0.34148900       0.00000000
Bi       5.07456684       0.00000000      16.88124275  F        0       0.00000000       0.00000000       0.00000000      -0.05468300      -0.00442700      -0.07175100       0.00000000
Bi       5.07456684       6.66044617      11.02163792  F        0       0.00000000       0.00000000       0.00000000       0.15645900      -0.74968200       0.24548200       0.00000000
Bi       1.69152224       8.88059521      11.02163792  F        0       0.00000000       0.00000000       0.00000000      -0.18676100       0.12672500      -0.32489700       0.00000000
Bi       6.76608896       2.22014880      13.95143986  F        0       0.00000000       0.00000000       0.00000000      -0.26184300      -0.10108200      -0.45925700       0.00000000
Bi       3.38304448       4.44029760      13.95143986  F        0       0.00000000       0.00000000       0.00000000      -0.38480200      -0.45684600      -0.65319400       0.00000000
S        3.38304448       8.07557869      13.95143986  F        0       0.00000000       0.00000000       0.00000000      -0.02090200      -0.26946100      -0.04270900       0.00000000
S        8.45761108       0.80501676      11.02163792  F        0       0.00000000       0.00000000       0.00000000      -0.41661800       0.16831000      -0.70376800       0.00000000
S        5.07456684       3.63528085      11.02163792  F        0       0.00000000       0.00000000       0.00000000      -0.04553800      -0.80555900      -0.07492500       0.00000000
S        5.07456684       9.68561172      11.02163792  F        0       0.00000000       0.00000000       0.00000000       0.00638700       0.23934100       0.00278600       0.00000000
S        1.69152224      12.51587582      11.02163792  F        0       0.00000000       0.00000000       0.00000000      -0.21790300      -0.23309000      -0.36807400       0.00000000
S        6.76608896       5.24531412      13.95143986  F        0       0.00000000       0.00000000       0.00000000       0.08551100       0.28264400       0.13607100       0.00000000
Ni       4.22880554       2.22014880      18.34614372  F        0       0.00000000       0.00000000       0.00000000       0.17783300      -0.04304400      -0.06847600       0.00000000
Ni       3.33449568      11.16023776      16.70476965  T        1       0.00224100       0.00939300       0.00645000       0.00224100       0.00939300       0.00645000       0.00000000
Ni      -4.22880602      11.10074425      18.34614372  F        0       0.00000000       0.00000000       0.00000000      -0.03023900      -0.02871900      -0.03704800       0.00000000
Ni       0.70469403      11.19662749      18.23349612  T        1       0.00620200       0.01523100      -0.00865700       0.00620200       0.01523100      -0.00865700       0.00000000
Ni       5.04052867       6.55155059      19.61930328  T        1       0.00391800       0.00618200      -0.00013100       0.00391800       0.00618200      -0.00013100       0.00000000
Ni       2.53728342       6.66044617      18.34614372  F        0       0.00000000       0.00000000       0.00000000      -0.10345300       0.10612700      -0.18445400       0.00000000
Ni       7.47962843       6.53108524      18.19437012  T        1      -0.00180400       0.00229100       0.00788900      -0.00180400       0.00229100       0.00788900       0.00000000
Ni       6.76608896       2.22014880      16.88124275  F        0       0.00000000       0.00000000       0.00000000      -0.16577700       0.00960100       0.18346000       0.00000000
Ni       4.19834206       2.15856143      21.19337446  T        1      -0.00410300      -0.00006400       0.00363900      -0.00410300      -0.00006400       0.00363900       0.00000000
Bi       3.38304448      11.10074425      13.95143986  F        0       0.00000000       0.00000000       0.00000000      -0.02942600      -0.17915700      -0.04326800       0.00000000
Bi       4.97757832       0.05980487      22.56243367  T        1      -0.00806000       0.01001600       0.01024300      -0.00806000       0.01001600       0.01024300       0.00000000
Bi       5.11709059       7.18950994      16.95112613  T        1       0.00079300       0.00473400       0.01531600       0.00079300       0.00473400       0.01531600       0.00000000
Bi       1.69152224       8.88059521      16.88124275  F        0       0.00000000       0.00000000       0.00000000       0.11388100       0.04244500       0.23193600       0.00000000
Bi       6.55083466       2.61222479      19.78942256  T        1       0.00286000       0.00433200       0.00826300       0.00286000       0.00433200       0.00826300       0.00000000
Bi       3.38304448       4.44029760      19.81104469  F        0       0.00000000       0.00000000       0.00000000       0.22116500       0.26163900       0.36556800       0.00000000
S        3.42166283       7.98896846      19.87761422  T        1      -0.00717800      -0.01524200      -0.02077400      -0.00717800      -0.01524200      -0.02077400       0.00000000
S        8.45761108       0.80501676      16.88124275  F        0       0.00000000       0.00000000       0.00000000       0.01545600       0.13383500       0.03154600       0.00000000
S        5.07456684       3.63528085      16.88124275  F        0       0.00000000       0.00000000       0.00000000      -0.04265700      -0.19728100      -0.11608500       0.00000000
S        5.17544721       9.98729253      17.05490994  T        1      -0.00209000      -0.00046200      -0.00350900      -0.00209000      -0.00046200      -0.00350900       0.00000000
S        1.68707336      12.56175531      16.86946172  T        1       0.00521400       0.00491700      -0.00197100       0.00521400       0.00491700      -0.00197100       0.00000000
S        6.84990859       5.40591990      19.92149950  T        1      -0.01059600      -0.00311700      -0.00533800      -0.01059600      -0.00311700      -0.00533800       0.00000000
H       -0.69192092       4.09789460      25.94940044  T        2      -0.03176500       0.01845500       0.00242000      -0.03176500       0.01845500       0.00242000       0.00000000
H        0.60661575       4.08843783      25.10556489  T        2       0.01952500       0.03234700       0.00313700       0.01952500       0.03234700       0.00313700       0.00000000
O       -0.01079800       3.49268241      25.58458673  T        2       0.00152300      -0.04342500      -0.00369800       0.00152300      -0.04342500      -0.00369800       0.00000000
87
Lattice="10.149133682250977 0.0 -5.859604835510254 -5.074566841125488 13.320892333984375 -2.929802417755127 0.0 0.0 41.017234802246094" Properties=species:S:1:pos:R:3:move_mask:L:1:tags:I:1:DFT_forces:R:3:forces:R:3 DFT_energy=-376.35992241 energy=-376.35992241 pbc="T T T"
Ni      -0.84576112       2.22014880      15.41634178  F        0       0.00000000       0.00000000       0.00000000       0.00000000       0.00000000       0.00000000
Ni      -1.69152224      11.10074425      13.95143986  F        0       0.00000000       0.00000000       0.00000000       0.00000000       0.00000000       0.00000000
Ni       0.84576112      11.10074425       9.55673695  F        0       0.00000000       0.00000000       0.00000000       0.00000000       0.00000000       0.00000000
Ni      -4.22880554      11.10074425      15.41634178  F        0       0.00000000       0.00000000       0.00000000       0.00000000       0.00000000       0.00000000
Ni       0.00000000       6.66044617      16.88124275  F        0       0.00000000       0.00000000       0.00000000       0.00000000       0.00000000       0.00000000
Ni      -2.53728342       6.66044617      15.41634178  F        0       0.00000000       0.00000000       0.00000000       0.00000000       0.00000000       0.00000000
Ni       2.53728342       6.66044617      15.41634178  F        0       0.00000000       0.00000000       0.00000000       0.00000000       0.00000000       0.00000000
Ni       1.69152224       2.22014880      13.95143986  F        0       0.00000000       0.00000000       0.00000000       0.00000000       0.00000000       0.00000000
Ni      -0.84576112       2.22014880      18.34614372  F        0       0.00000000       0.00000000       0.00000000       0.00000000       0.00000000       0.00000000
Bi      -1.69152224      11.10074425      11.02163792  F        0       0.00000000       0.00000000       0.00000000       0.00000000       0.00000000       0.00000000
Bi       0.00000000       0.00000000      19.81104469  F        0       0.00000000       0.00000000       0.00000000       0.00000000       0.00000000       0.00000000
Bi       0.00000000       6.66044617      13.95143986  F        0       0.00000000       0.00000000       0.00000000       0.00000000       0.00000000       0.00000000
Bi      -3.38304448       8.88059521      13.95143986  F        0       0.00000000       0.00000000       0.00000000       0.00000000       0.00000000       0.00000000
Bi       1.69152224       2.22014880      16.88124275  F        0       0.00000000       0.00000000       0.00000000       0.00000000       0.00000000       0.00000000
Bi      -1.69152224       4.44029760      16.88124275  F        0       0.00000000       0.00000000       0.00000000       0.00000000       0.00000000       0.00000000
S       -1.69152224       8.07557869      16.88124275  F        0       0.00000000       0.00000000       0.00000000       0.00000000       0.00000000       0.00000000
S        3.38304448       0.80501676      13.95143986  F        0       0.00000000       0.00000000       0.00000000       0.00000000       0.00000000       0.00000000
S        0.00000000       3.63528085      13.95143986  F        0       0.00000000       0.00000000       0.00000000       0.00000000       0.00000000       0.00000000
S        0.00000000       9.68561172      13.95143986  F        0       0.00000000       0.00000000       0.00000000       0.00000000       0.00000000       0.00000000
S       -3.38304448      12.51587582      13.95143986  F        0       0.00000000       0.00000000       0.00000000       0.00000000       0.00000000       0.00000000
S        1.69152224       5.24531412      16.88124275  F        0       0.00000000       0.00000000       0.00000000       0.00000000       0.00000000       0.00000000
Ni      -0.84576112       2.22014880      21.27594566  F        0       0.00000000       0.00000000       0.00000000       0.00000000       0.00000000       0.00000000
Ni      -1.73124158      11.21760149      19.63120182  T        1      -0.00189500      -0.00113300       0.00081100      -0.00189500      -0.00113300       0.00081100
Ni       0.84576112      11.10074425      15.41634178  F        0       0.00000000       0.00000000       0.00000000       0.00000000       0.00000000       0.00000000
Ni       5.78830244      11.19333671      15.28727174  T        1       0.00686500      -0.01764600      -0.00848000       0.00686500      -0.01764600      -0.00848000
Ni      -0.07243224       6.54683850      22.54620654  T        1      -0.00560500       0.00412600      -0.00040800      -0.00560500       0.00412600      -0.00040800
Ni      -2.53728342       6.66044617      21.27594566  F        0       0.00000000       0.00000000       0.00000000       0.00000000       0.00000000       0.00000000
Ni       2.40902955       6.57994726      21.12130101  T        1       0.00102900       0.00030000       0.00047700       0.00102900       0.00030000       0.00047700
Ni       1.69152224       2.22014880      19.81104469  F        0       0.00000000       0.00000000       0.00000000       0.00000000       0.00000000       0.00000000
Ni       9.25483314       2.10928726      18.35982549  T        1       0.03200100       0.02486700       0.01424700       0.03200100       0.02486700       0.01424700
Bi      -1.69152224      11.10074425      16.88124275  F        0       0.00000000       0.00000000       0.00000000       0.00000000       0.00000000       0.00000000
Bi       4.97689742      13.27839031      16.73397578  T        1       0.01808800      -0.01193400       0.02603600       0.01808800      -0.01193400       0.02603600
Bi       0.04741050       7.23711613      19.88953498  T        1      -0.00847100      -0.00254000      -0.00629900      -0.00847100      -0.00254000      -0.00629900
Bi      -3.38304448       8.88059521      19.81104469  F        0       0.00000000       0.00000000       0.00000000       0.00000000       0.00000000       0.00000000
Bi       1.79404827       2.64994680      22.55371433  T        1       0.01022100      -0.01963400      -0.02686700       0.01022100      -0.01963400      -0.02686700
Bi      -1.69152224       4.44029760      22.74084663  F        0       0.00000000       0.00000000       0.00000000       0.00000000       0.00000000       0.00000000
S       -1.66499172       8.02284515      22.79139032  T        1       0.00151500      -0.01088300      -0.00099300       0.00151500      -0.01088300      -0.00099300
S        3.38304448       0.80501676      19.81104469  F        0       0.00000000       0.00000000       0.00000000       0.00000000       0.00000000       0.00000000
S        0.00000000       3.63528085      19.81104469  F        0       0.00000000       0.00000000       0.00000000       0.00000000       0.00000000       0.00000000
S        0.09934994      10.03385182      19.99126737  T        1       0.00200400       0.00131400       0.00213900       0.00200400       0.00131400       0.00213900
S       -3.40109299      12.58401293      19.79074954  T        1       0.00434600      -0.00633400      -0.00008000       0.00434600      -0.00633400      -0.00008000
S        1.74805234       5.43382031      22.82198752  T        1       0.01023900      -0.00959800       0.02471700       0.01023900      -0.00959800       0.02471700
Ni       4.22880554       2.22014880      12.48653889  F        0       0.00000000       0.00000000       0.00000000       0.00000000       0.00000000       0.00000000
Ni       3.38304448      11.10074425      11.02163792  F        0       0.00000000       0.00000000       0.00000000       0.00000000       0.00000000       0.00000000
Ni      -4.22880602      11.10074425      12.48653889  F        0       0.00000000       0.00000000       0.00000000       0.00000000       0.00000000       0.00000000
Ni       0.84576112      11.10074425      12.48653889  F        0       0.00000000       0.00000000       0.00000000       0.00000000       0.00000000       0.00000000
Ni       5.07456684       6.66044617      13.95143986  F        0       0.00000000       0.00000000       0.00000000       0.00000000       0.00000000       0.00000000
Ni       2.53728342       6.66044617      12.48653889  F        0       0.00000000       0.00000000       0.00000000       0.00000000       0.00000000       0.00000000
Ni      -2.53728390       6.66044617      18.34614372  F        0       0.00000000       0.00000000       0.00000000       0.00000000       0.00000000       0.00000000
Ni       6.76608896       2.22014880      11.02163792  F        0       0.00000000       0.00000000       0.00000000       0.00000000       0.00000000       0.00000000
Ni       4.22880554       2.22014880      15.41634178  F        0       0.00000000       0.00000000       0.00000000       0.00000000       0.00000000       0.00000000
Bi       3.38304448      11.10074425       8.09183502  F        0       0.00000000       0.00000000       0.00000000       0.00000000       0.00000000       0.00000000
Bi       5.07456684       0.00000000      16.88124275  F        0       0.00000000       0.00000000       0.00000000       0.00000000       0.00000000       0.00000000
Bi       5.07456684       6.66044617      11.02163792  F        0       0.00000000       0.00000000       0.00000000       0.00000000       0.00000000       0.00000000
Bi       1.69152224       8.88059521      11.02163792  F        0       0.00000000       0.00000000       0.00000000       0.00000000       0.00000000       0.00000000
Bi       6.76608896       2.22014880      13.95143986  F        0       0.00000000       0.00000000       0.00000000       0.00000000       0.00000000       0.00000000
Bi       3.38304448       4.44029760      13.95143986  F        0       0.00000000       0.00000000       0.00000000       0.00000000       0.00000000       0.00000000
S        3.38304448       8.07557869      13.95143986  F        0       0.00000000       0.00000000       0.00000000       0.00000000       0.00000000       0.00000000
S        8.45761108       0.80501676      11.02163792  F        0       0.00000000       0.00000000       0.00000000       0.00000000       0.00000000       0.00000000
S        5.07456684       3.63528085      11.02163792  F        0       0.00000000       0.00000000       0.00000000       0.00000000       0.00000000       0.00000000
S        5.07456684       9.68561172      11.02163792  F        0       0.00000000       0.00000000       0.00000000       0.00000000       0.00000000       0.00000000
S        1.69152224      12.51587582      11.02163792  F        0       0.00000000       0.00000000       0.00000000       0.00000000       0.00000000       0.00000000
S        6.76608896       5.24531412      13.95143986  F        0       0.00000000       0.00000000       0.00000000       0.00000000       0.00000000       0.00000000
Ni       4.22880554       2.22014880      18.34614372  F        0       0.00000000       0.00000000       0.00000000       0.00000000       0.00000000       0.00000000
Ni       3.33227949      11.18746807      16.70546708  T        1      -0.00740400      -0.01617800       0.00115100      -0.00740400      -0.01617800       0.00115100
Ni      -4.22880602      11.10074425      18.34614372  F        0       0.00000000       0.00000000       0.00000000       0.00000000       0.00000000       0.00000000
Ni       0.70546614      11.21356305      18.22513839  T        1       0.00239900       0.00256700       0.00029700       0.00239900       0.00256700       0.00029700
Ni       5.00288184       6.57915403      19.62720353  T        1       0.00274000      -0.00494500      -0.00113300       0.00274000      -0.00494500      -0.00113300
Ni       2.53728342       6.66044617      18.34614372  F        0       0.00000000       0.00000000       0.00000000       0.00000000       0.00000000       0.00000000
Ni       7.47590251       6.54792393      18.18758631  T        1       0.00146000      -0.00398400      -0.00411200       0.00146000      -0.00398400      -0.00411200
Ni       6.76608896       2.22014880      16.88124275  F        0       0.00000000       0.00000000       0.00000000       0.00000000       0.00000000       0.00000000
Ni       4.17623355       2.17116719      21.19328503  T        1       0.00772100      -0.00352800       0.00557900       0.00772100      -0.00352800       0.00557900
Bi       3.38304448      11.10074425      13.95143986  F        0       0.00000000       0.00000000       0.00000000       0.00000000       0.00000000       0.00000000
Bi       4.96559177       0.07122925      22.55565726  T        1      -0.00254900       0.00642500       0.00356400      -0.00254900       0.00642500       0.00356400
Bi       5.11394375       7.20945212      16.95604075  T        1      -0.00126700      -0.00647200      -0.00313600      -0.00126700      -0.00647200      -0.00313600
Bi       1.69152224       8.88059521      16.88124275  F        0       0.00000000       0.00000000       0.00000000       0.00000000       0.00000000       0.00000000
Bi       6.56999808       2.64845166      19.78988823  T        1      -0.02340800      -0.01321200      -0.00190800      -0.02340800      -0.01321200      -0.00190800
Bi       3.38304448       4.44029760      19.81104469  F        0       0.00000000       0.00000000       0.00000000       0.00000000       0.00000000       0.00000000