66
Lattice="8.896364212036133 -6.671204918847399e-32 -5.447452054667249e-16 -1.430644577143144e-15 8.896364212036133 -5.447452054667249e-16 -0.0 4.62231639140713e-15 37.74407958984375" Properties=species:S:1:pos:R:3:move_mask:L:1:tags:I:1:DFT_forces:R:3:forces:R:3:magmoms:R:1 DFT_energy=-451.47235941 energy=-451.47235941 dipole="_JSON [[0.0, 0.0, 0.0]]" magmom=0.0 free_energy=-451.51254072 pbc="T T T"
Ga       2.20740438       2.25357103      10.74354172  F        0       0.00000000       0.00000000       0.00000000       0.00662600      -0.00655000       0.07965000       0.00000000
Ga       8.87967753       4.47766209       7.59820080  F        0       0.00000000       0.00000000       0.00000000      -0.00713300       0.00908100      -0.12176600       0.00000000
Ga       2.18670736       2.21895051      17.09705516  T        1       0.00800500      -0.00015500      -0.00102000       0.00800500      -0.00015500      -0.00102000       0.00000000
Ga       8.87967753       4.47766209      13.88888168  F        0       0.00000000       0.00000000       0.00000000       0.01532000       0.00771400       0.38345700       0.00000000
Tc       8.87967753       4.47766209      10.74354172  F        0       0.00000000       0.00000000       0.00000000       0.01052400      -0.00629400      -0.17703000       0.00000000
Tc       2.20740438       2.25357103       7.59820080  F        0       0.00000000       0.00000000       0.00000000       0.00892000       0.00064800      -0.85285100       0.00000000
Tc       8.84959022       4.47886105      16.82801964  T        1       0.01750300      -0.01060800      -0.00822200       0.01750300      -0.01060800      -0.00822200       0.00000000
Tc       2.20740438       2.25357103      13.88888168  F        0       0.00000000       0.00000000       0.00000000       0.00696600       0.01262400      -0.91081400       0.00000000
Ti       8.87967753       2.25357103       6.02553082  F        0       0.00000000       0.00000000       0.00000000      -0.00399400       0.00156000       0.49128600       0.00000000
Ti       8.87967753       2.25357103       9.17087173  F        0       0.00000000       0.00000000       0.00000000      -0.00221000      -0.00446500      -0.07093000       0.00000000
Ti       2.20740438       4.47766209       9.17087173  F        0       0.00000000       0.00000000       0.00000000       0.00530000      -0.00004500      -0.05344300       0.00000000
Ti       2.20740438       4.47766209       6.02553082  F        0       0.00000000       0.00000000       0.00000000      -0.00333500      -0.00174800       0.49578300       0.00000000
Ti       8.87967753       2.25357103      12.31621170  F        0       0.00000000       0.00000000       0.00000000       0.00373000       0.01211100       0.36931800       0.00000000
Ti       8.87724401       2.26067214      15.52438480  T        1      -0.01323800      -0.00541200       0.00633400      -0.01323800      -0.00541200       0.00633400       0.00000000
Ti       2.21815739       4.47960700      15.53714175  T        1       0.01680500      -0.00831100      -0.00171800       0.01680500      -0.00831100      -0.00171800       0.00000000
Ti       2.20740438       4.47766209      12.31621170  F        0       0.00000000       0.00000000       0.00000000      -0.07247200       0.00159600       0.32352100       0.00000000
Ga       2.20740438       6.70175338      10.74354172  F        0       0.00000000       0.00000000       0.00000000       0.00657600       0.00179900       0.07975400       0.00000000
Ga       8.87967753       0.02948022       7.59820080  F        0       0.00000000       0.00000000       0.00000000      -0.00692700       0.01162800      -0.11241800       0.00000000
Ga       2.17955105       6.74281945      17.09376826  T        1       0.00650300      -0.01174100       0.00387200       0.00650300      -0.01174100       0.00387200       0.00000000
Ga       8.87967753       0.02948022      13.88888168  F        0       0.00000000       0.00000000       0.00000000      -0.01545700       0.01246300       0.38365500       0.00000000
Tc       8.87967753       0.02948022      10.74354172  F        0       0.00000000       0.00000000       0.00000000       0.00683800      -0.00555700      -0.18384300       0.00000000
Tc       2.20740438       6.70175338       7.59820080  F        0       0.00000000       0.00000000       0.00000000       0.00804800      -0.01299200      -0.85136800       0.00000000
Tc       8.88275291       0.03022988      16.81762335  T        1      -0.00851200      -0.00712800       0.00910400      -0.00851200      -0.00712800       0.00910400       0.00000000
Tc       2.20740438       6.70175338      13.88888168  F        0       0.00000000       0.00000000       0.00000000       0.01036200      -0.02291700      -0.90182100       0.00000000
Ti       8.87967753       6.70175338       6.02553082  F        0       0.00000000       0.00000000       0.00000000      -0.00401400       0.00097000       0.49079600       0.00000000
Ti       8.87967753       6.70175338       9.17087173  F        0       0.00000000       0.00000000       0.00000000      -0.00227500       0.00611100      -0.07010700       0.00000000
Ti       2.20740438       0.02948022       9.17087173  F        0       0.00000000       0.00000000       0.00000000      -0.00528300       0.00026700      -0.07077600       0.00000000
Ti       2.20740438       0.02948022       6.02553082  F        0       0.00000000       0.00000000       0.00000000      -0.00386500       0.00219700       0.48904100       0.00000000
Ti       8.87967753       6.70175338      12.31621170  F        0       0.00000000       0.00000000       0.00000000       0.00133700      -0.00912800       0.36794300       0.00000000
Ti       8.87409299       6.69471237      15.52259535  T        1      -0.00510800       0.00514100       0.00336000      -0.00510800       0.00514100       0.00336000       0.00000000
Ti       2.20668468       0.03234911      15.51581877  T        1      -0.00171800      -0.00159100       0.00940600      -0.00171800      -0.00159100       0.00940600       0.00000000
Ti       2.20740438       0.02948022      12.31621170  F        0       0.00000000       0.00000000       0.00000000      -0.00060200       0.00103400       0.34984200       0.00000000
Ga       6.65558672       2.25357103      10.74354172  F        0       0.00000000       0.00000000       0.00000000       0.01814900      -0.00682700       0.07698500       0.00000000
Ga       4.43149567       4.47766209       7.59820080  F        0       0.00000000       0.00000000       0.00000000      -0.00287300       0.00840400      -0.13808100       0.00000000
Ga       6.67934980       2.21923225      17.10706295  T        1      -0.03336200       0.01669900      -0.01342300      -0.03336200       0.01669900      -0.01342300       0.00000000
Ga       4.43149567       4.47766209      13.88888168  F        0       0.00000000       0.00000000       0.00000000      -0.00043700       0.01486400       0.68968100       0.00000000
Tc       4.43149567       4.47766209      10.74354172  F        0       0.00000000       0.00000000       0.00000000       0.01021300      -0.00613000      -0.11198200       0.00000000
Tc       6.65558672       2.25357103       7.59820080  F        0       0.00000000       0.00000000       0.00000000      -0.00499400       0.00038000      -0.85373700       0.00000000
Tc       4.39831081       4.47069402      16.93214431  T        1       0.00101300       0.00621100      -0.02211600       0.00101300       0.00621100      -0.02211600       0.00000000
Tc       6.65558672       2.25357103      13.88888168  F        0       0.00000000       0.00000000       0.00000000      -0.02096000      -0.00084200      -0.92560100       0.00000000
Ti       4.43149567       2.25357103       6.02553082  F        0       0.00000000       0.00000000       0.00000000       0.00077700       0.00218600       0.50075400       0.00000000
Ti       4.43149567       2.25357103       9.17087173  F        0       0.00000000       0.00000000       0.00000000      -0.00216000       0.00403600      -0.05521700       0.00000000
Ti       6.65558672       4.47766209       9.17087173  F        0       0.00000000       0.00000000       0.00000000      -0.00175200      -0.00005800      -0.05436800       0.00000000
Ti       6.65558672       4.47766209       6.02553082  F        0       0.00000000       0.00000000       0.00000000       0.00072400      -0.00178100       0.49627300       0.00000000
Ti       4.43149567       2.25357103      12.31621170  F        0       0.00000000       0.00000000       0.00000000       0.00497200      -0.07155500       0.31355100       0.00000000
Ti       4.43125232       2.23693500      15.51444061  T        1      -0.00601200       0.00373100       0.00255200      -0.00601200       0.00373100       0.00255200       0.00000000
Ti       6.65242554       4.47549380      15.53179738  T        1      -0.01088700       0.00566900      -0.00277300      -0.01088700       0.00566900      -0.00277300       0.00000000
Ti       6.65558672       4.47766209      12.31621170  F        0       0.00000000       0.00000000       0.00000000       0.06254400      -0.00141800       0.31412000       0.00000000
Ga       6.65558672       6.70175338      10.74354172  F        0       0.00000000       0.00000000       0.00000000       0.01762900       0.00141800       0.07767500       0.00000000
Ga       4.43149567       0.02948022       7.59820080  F        0       0.00000000       0.00000000       0.00000000      -0.00266500       0.01232400      -0.12052300       0.00000000
Ga       6.68204195       6.73409701      17.10716891  T        1      -0.01817600      -0.00272800       0.00701500      -0.01817600      -0.00272800       0.00701500       0.00000000
Ga       4.43149567       0.02948022      13.88888168  F        0       0.00000000       0.00000000       0.00000000       0.00495400       0.00604600       0.28962800       0.00000000
Tc       4.43149567       0.02948022      10.74354172  F        0       0.00000000       0.00000000       0.00000000       0.01229100      -0.00629800      -0.17394700       0.00000000
Tc       6.65558672       6.70175338       7.59820080  F        0       0.00000000       0.00000000       0.00000000      -0.00414700      -0.01279200      -0.85211500       0.00000000
Tc       4.43186543       0.02959259      16.82586842  T        1      -0.00327300      -0.00323600      -0.01501200      -0.00327300      -0.00323600      -0.01501200       0.00000000
Tc       6.65558672       6.70175338      13.88888168  F        0       0.00000000       0.00000000       0.00000000      -0.02896100      -0.01690500      -0.92090100       0.00000000
Ti       4.43149567       6.70175338       6.02553082  F        0       0.00000000       0.00000000       0.00000000       0.00069900       0.00037000       0.49997100       0.00000000
Ti       4.43149567       6.70175338       9.17087173  F        0       0.00000000       0.00000000       0.00000000      -0.00212300      -0.00225700      -0.05340100       0.00000000
Ti       6.65558672       0.02948022       9.17087173  F        0       0.00000000       0.00000000       0.00000000       0.00899100       0.00018600      -0.07393200       0.00000000
Ti       6.65558672       0.02948022       6.02553082  F        0       0.00000000       0.00000000       0.00000000       0.00086300       0.00217500       0.48957700       0.00000000
Ti       4.43149567       6.70175338      12.31621170  F        0       0.00000000       0.00000000       0.00000000       0.00386800       0.07429400       0.31820500       0.00000000
Ti       4.42935688       6.71889572      15.51737511  T        1      -0.00232000      -0.01098400       0.00479600      -0.00232000      -0.01098400       0.00479600       0.00000000
Ti       6.65553656       0.02914022      15.52082984  T        1      -0.00180500      -0.00245400       0.00810700      -0.00180500      -0.00245400       0.00810700       0.00000000
Ti       6.65558672       0.02948022      12.31621170  F        0       0.00000000       0.00000000       0.00000000      -0.00421500      -0.00099900       0.35595800       0.00000000
O        4.44995784       4.45080432      18.87465475  T        2       0.01867200       0.01654600       0.00407600       0.01867200       0.01654600       0.00407600       0.00000000
H        3.57614862       4.48810847      19.31021046  T        2       0.00154100      -0.00058200      -0.00979000       0.00154100      -0.00058200      -0.00979000       0.00000000
66
Lattice="8.896364212036133 -6.671204918847399e-32 -5.447452054667249e-16 -1.430644577143144e-15 8.896364212036133 -5.447452054667249e-16 -0.0 4.62231639140713e-15 37.74407958984375" Properties=species:S:1:pos:R:3:move_mask:L:1:tags:I:1:DFT_forces:R:3:forces:R:3 DFT_energy=-451.40301777 energy=-451.40301777 pbc="T T T"
Ga       2.20740438       2.25357103      10.74354172  F        0       0.00000000       0.00000000       0.00000000       0.00000000       0.00000000       0.00000000
Ga       8.87967753       4.47766209       7.59820080  F        0       0.00000000       0.00000000       0.00000000       0.00000000       0.00000000       0.00000000
Ga       2.16472100       2.20853915      17.07906982  T        1      -0.00065800       0.01328100       0.00496700      -0.00065800       0.01328100       0.00496700
Ga       8.87967753       4.47766209      13.88888168  F        0       0.00000000       0.00000000       0.00000000       0.00000000       0.00000000       0.00000000
Tc       8.87967753       4.47766209      10.74354172  F        0       0.00000000       0.00000000       0.00000000       0.00000000       0.00000000       0.00000000
Tc       2.20740438       2.25357103       7.59820080  F        0       0.00000000       0.00000000       0.00000000       0.00000000       0.00000000       0.00000000
Tc       8.81821634       4.47576429      16.82657708  T        1      -0.00398700      -0.00337300      -0.00725300      -0.00398700      -0.00337300      -0.00725300
Tc       2.20740438       2.25357103      13.88888168  F        0       0.00000000       0.00000000       0.00000000       0.00000000       0.00000000       0.00000000
Ti       8.87967753       2.25357103       6.02553082  F        0       0.00000000       0.00000000       0.00000000       0.00000000       0.00000000       0.00000000
Ti       8.87967753       2.25357103       9.17087173  F        0       0.00000000       0.00000000       0.00000000       0.00000000       0.00000000       0.00000000
Ti       2.20740438       4.47766209       9.17087173  F        0       0.00000000       0.00000000       0.00000000       0.00000000       0.00000000       0.00000000
Ti       2.20740438       4.47766209       6.02553082  F        0       0.00000000       0.00000000       0.00000000       0.00000000       0.00000000       0.00000000
Ti       8.87967753       2.25357103      12.31621170  F        0       0.00000000       0.00000000       0.00000000       0.00000000       0.00000000       0.00000000
Ti       8.85561769       2.25817360      15.52325391  T        1      -0.00294100       0.00146500      -0.00289100      -0.00294100       0.00146500      -0.00289100
Ti       2.21555938       4.47760903      15.52012580  T        1       0.00547200       0.00004300       0.01246200       0.00547200       0.00004300       0.01246200
Ti       2.20740438       4.47766209      12.31621170  F        0       0.00000000       0.00000000       0.00000000       0.00000000       0.00000000       0.00000000
Ga       2.20740438       6.70175338      10.74354172  F        0       0.00000000       0.00000000       0.00000000       0.00000000       0.00000000       0.00000000
Ga       8.87967753       0.02948022       7.59820080  F        0       0.00000000       0.00000000       0.00000000       0.00000000       0.00000000       0.00000000
Ga       2.16560863       6.74489654      17.08662114  T        1       0.00399300      -0.01269900      -0.00453200       0.00399300      -0.01269900      -0.00453200
Ga       8.87967753       0.02948022      13.88888168  F        0       0.00000000       0.00000000       0.00000000       0.00000000       0.00000000       0.00000000
Tc       8.87967753       0.02948022      10.74354172  F        0       0.00000000       0.00000000       0.00000000       0.00000000       0.00000000       0.00000000
Tc       2.20740438       6.70175338       7.59820080  F        0       0.00000000       0.00000000       0.00000000       0.00000000       0.00000000       0.00000000
Tc       8.87351313       0.03034392      16.81825077  T        1      -0.00597000       0.00443400      -0.00443500      -0.00597000       0.00443400      -0.00443500
Tc       2.20740438       6.70175338      13.88888168  F        0       0.00000000       0.00000000       0.00000000       0.00000000       0.00000000       0.00000000
Ti       8.87967753       6.70175338       6.02553082  F        0       0.00000000       0.00000000       0.00000000       0.00000000       0.00000000       0.00000000
Ti       8.87967753       6.70175338       9.17087173  F        0       0.00000000       0.00000000       0.00000000       0.00000000       0.00000000       0.00000000
Ti       2.20740438       0.02948022       9.17087173  F        0       0.00000000       0.00000000       0.00000000       0.00000000       0.00000000       0.00000000
Ti       2.20740438       0.02948022       6.02553082  F        0       0.00000000       0.00000000       0.00000000       0.00000000       0.00000000       0.00000000
Ti       8.87967753       6.70175338      12.31621170  F        0       0.00000000       0.00000000       0.00000000       0.00000000       0.00000000       0.00000000
Ti       8.85444640       6.69606902      15.52655354  T        1       0.00049200      -0.00042800      -0.00219100       0.00049200      -0.00042800      -0.00219100
Ti       2.19958442       0.02733820      15.51187306  T        1       0.00243000      -0.00047600       0.00554300       0.00243000      -0.00047600       0.00554300
Ti       2.20740438       0.02948022      12.31621170  F        0       0.00000000       0.00000000       0.00000000       0.00000000       0.00000000       0.00000000
Ga       6.65558672       2.25357103      10.74354172  F        0       0.00000000       0.00000000       0.00000000       0.00000000       0.00000000       0.00000000
Ga       4.43149567       4.47766209       7.59820080  F        0       0.00000000       0.00000000       0.00000000       0.00000000       0.00000000       0.00000000
Ga       6.66112237       2.22496775      17.10793539  T        1       0.01111700      -0.00800900      -0.00426200       0.01111700      -0.00800900      -0.00426200
Ga       4.43149567       4.47766209      13.88888168  F        0       0.00000000       0.00000000       0.00000000       0.00000000       0.00000000       0.00000000
Tc       4.43149567       4.47766209      10.74354172  F        0       0.00000000       0.00000000       0.00000000       0.00000000       0.00000000       0.00000000
Tc       6.65558672       2.25357103       7.59820080  F        0       0.00000000       0.00000000       0.00000000       0.00000000       0.00000000       0.00000000
Tc       4.31763760       4.47570996      16.91235841  T        1      -0.01298200      -0.00056400      -0.00815700      -0.01298200      -0.00056400      -0.00815700
Tc       6.65558672       2.25357103      13.88888168  F        0       0.00000000       0.00000000       0.00000000       0.00000000       0.00000000       0.00000000
Ti       4.43149567       2.25357103       6.02553082  F        0       0.00000000       0.00000000       0.00000000       0.00000000       0.00000000       0.00000000
Ti       4.43149567       2.25357103       9.17087173  F        0       0.00000000       0.00000000       0.00000000       0.00000000       0.00000000       0.00000000
Ti       6.65558672       4.47766209       9.17087173  F        0       0.00000000       0.00000000       0.00000000       0.00000000       0.00000000       0.00000000
Ti       6.65558672       4.47766209       6.02553082  F        0       0.00000000       0.00000000       0.00000000       0.00000000       0.00000000       0.00000000
Ti       4.43149567       2.25357103      12.31621170  F        0       0.00000000       0.00000000       0.00000000       0.00000000       0.00000000       0.00000000
Ti       4.41289770       2.23673832      15.50792116  T        1       0.00015800      -0.00541300       0.00921500       0.00015800      -0.00541300       0.00921500
Ti       6.65512093       4.47632141      15.52971452  T        1      -0.00601000      -0.00287200       0.00713700      -0.00601000      -0.00287200       0.00713700
Ti       6.65558672       4.47766209      12.31621170  F        0       0.00000000       0.00000000       0.00000000       0.00000000       0.00000000       0.00000000
Ga       6.65558672       6.70175338      10.74354172  F        0       0.00000000       0.00000000       0.00000000       0.00000000       0.00000000       0.00000000
Ga       4.43149567       0.02948022       7.59820080  F        0       0.00000000       0.00000000       0.00000000       0.00000000       0.00000000       0.00000000
Ga       6.65198336       6.72515721      17.10844352  T        1      -0.00086700       0.01144300       0.00414100      -0.00086700       0.01144300       0.00414100
Ga       4.43149567       0.02948022      13.88888168  F        0       0.00000000       0.00000000       0.00000000       0.00000000       0.00000000       0.00000000
Tc       4.43149567       0.02948022      10.74354172  F        0       0.00000000       0.00000000       0.00000000       0.00000000       0.00000000       0.00000000
Tc       6.65558672       6.70175338       7.59820080  F        0       0.00000000       0.00000000       0.00000000       0.00000000       0.00000000       0.00000000
Tc       4.42378591       0.02603194      16.82145982  T        1       0.00614900       0.00075100      -0.00042200       0.00614900       0.00075100      -0.00042200
Tc       6.65558672       6.70175338      13.88888168  F        0       0.00000000       0.00000000       0.00000000       0.00000000       0.00000000       0.00000000
Ti       4.43149567       6.70175338       6.02553082  F        0       0.00000000       0.00000000       0.00000000       0.00000000       0.00000000       0.00000000
Ti       4.43149567       6.70175338       9.17087173  F        0       0.00000000       0.00000000       0.00000000       0.00000000       0.00000000       0.00000000
Ti       6.65558672       0.02948022       9.17087173  F        0       0.00000000       0.00000000       0.00000000       0.00000000       0.00000000       0.00000000
Ti       6.65558672       0.02948022       6.02553082  F        0       0.00000000       0.00000000       0.00000000       0.00000000       0.00000000       0.00000000
Ti       4.43149567       6.70175338      12.31621170  F        0       0.00000000       0.00000000       0.00000000       0.00000000       0.00000000       0.00000000
Ti       4.41059329       6.71972195      15.50715879  T        1      -0.00244200       0.00075200       0.00762100      -0.00244200       0.00075200       0.00762100
Ti       6.64890602       0.02765276      15.52376963  T        1      -0.00281000       0.00154000      -0.00028200      -0.00281000       0.00154000      -0.00028200
Ti       6.65558672       0.02948022      12.31621170  F        0       0.00000000       0.00000000       0.00000000       0.00000000       0.00000000       0.00000000
O        4.03184878       4.46410549      18.83388627  T        2       0.09691500      -0.00341600       0.05908500       0.09691500      -0.00341600       0.05908500
H        3.06779288       4.42451312      19.00030456  T        2       0.06794000       0.00908000       0.15847600       0.06794000       0.00908000       0.15847600
66
Lattice="8.896364212036133 -6.671204918847399e-32 -5.447452054667249e-16 -1.430644577143144e-15 8.896364212036133 -5.447452054667249e-16 -0.0 4.62231639140713e-15 37.74407958984375" Properties=species:S:1:pos:R:3:move_mask:L:1:tags:I:1:DFT_forces:R:3:forces:R:3 DFT_energy=-451.17414146 energy=-451.17414146 pbc="T T T"
Ga       2.20740438       2.25357103      10.74354172  F        0       0.00000000       0.00000000       0.00000000       0.00000000       0.00000000       0.00000000
Ga       8.87967753       4.47766209       7.59820080  F        0       0.00000000       0.00000000       0.00000000       0.00000000       0.00000000       0.00000000
Ga       2.14678143       2.17298614      17.07983400  T        1       0.00864600       0.02664800      -0.01828200       0.00864600       0.02664800      -0.01828200
Ga       8.87967753       4.47766209      13.88888168  F        0       0.00000000       0.00000000       0.00000000       0.00000000       0.00000000       0.00000000
Tc       8.87967753       4.47766209      10.74354172  F        0       0.00000000       0.00000000       0.00000000       0.00000000       0.00000000       0.00000000
Tc       2.20740438       2.25357103       7.59820080  F        0       0.00000000       0.00000000       0.00000000       0.00000000       0.00000000       0.00000000
Tc       8.82779383       4.47473835      16.82693931  T        1      -0.00886000      -0.00482300       0.00952300      -0.00886000      -0.00482300       0.00952300
Tc       2.20740438       2.25357103      13.88888168  F        0       0.00000000       0.00000000       0.00000000       0.00000000       0.00000000       0.00000000
Ti       8.87967753       2.25357103       6.02553082  F        0       0.00000000       0.00000000       0.00000000       0.00000000       0.00000000       0.00000000
Ti       8.87967753       2.25357103       9.17087173  F        0       0.00000000       0.00000000       0.00000000       0.00000000       0.00000000       0.00000000
Ti       2.20740438       4.47766209       9.17087173  F        0       0.00000000       0.00000000       0.00000000       0.00000000       0.00000000       0.00000000
Ti       2.20740438       4.47766209       6.02553082  F        0       0.00000000       0.00000000       0.00000000       0.00000000       0.00000000       0.00000000
Ti       8.87967753       2.25357103      12.31621170  F        0       0.00000000       0.00000000       0.00000000       0.00000000       0.00000000       0.00000000
Ti       8.85202523       2.25726479      15.52296177  T        1      -0.00317100       0.00378100      -0.00174100      -0.00317100       0.00378100      -0.00174100
Ti       2.21754596       4.47427504      15.50462204  T        1       0.00172600      -0.00159600      -0.01938300       0.00172600      -0.00159600      -0.01938300
Ti       2.20740438       4.47766209      12.31621170  F        0       0.00000000       0.00000000       0.00000000       0.00000000       0.00000000       0.00000000
Ga       2.20740438       6.70175338      10.74354172  F        0       0.00000000       0.00000000       0.00000000       0.00000000       0.00000000       0.00000000
Ga       8.87967753       0.02948022       7.59820080  F        0       0.00000000       0.00000000       0.00000000       0.00000000       0.00000000       0.00000000
Ga       2.15948682       6.76774777      17.08402024  T        1       0.00686700      -0.02693900      -0.01593400       0.00686700      -0.02693900      -0.01593400
Ga       8.87967753       0.02948022      13.88888168  F        0       0.00000000       0.00000000       0.00000000       0.00000000       0.00000000       0.00000000
Tc       8.87967753       0.02948022      10.74354172  F        0       0.00000000       0.00000000       0.00000000       0.00000000       0.00000000       0.00000000
Tc       2.20740438       6.70175338       7.59820080  F        0       0.00000000       0.00000000       0.00000000       0.00000000       0.00000000       0.00000000
Tc       8.88662839       0.02894948      16.81555523  T        1      -0.01138800       0.00337300      -0.00408700      -0.01138800       0.00337300      -0.00408700
Tc       2.20740438       6.70175338      13.88888168  F        0       0.00000000       0.00000000       0.00000000       0.00000000       0.00000000       0.00000000
Ti       8.87967753       6.70175338       6.02553082  F        0       0.00000000       0.00000000       0.00000000       0.00000000       0.00000000       0.00000000
Ti       8.87967753       6.70175338       9.17087173  F        0       0.00000000       0.00000000       0.00000000       0.00000000       0.00000000       0.00000000
Ti       2.20740438       0.02948022       9.17087173  F        0       0.00000000       0.00000000       0.00000000       0.00000000       0.00000000       0.00000000
Ti       2.20740438       0.02948022       6.02553082  F        0       0.00000000       0.00000000       0.00000000       0.00000000       0.00000000       0.00000000
Ti       8.87967753       6.70175338      12.31621170  F        0       0.00000000       0.00000000       0.00000000       0.00000000       0.00000000       0.00000000
Ti       8.86013925       6.69680454      15.52653002  T        1      -0.01570400      -0.00269400      -0.01021200      -0.01570400      -0.00269400      -0.01021200
Ti       2.19937406       0.02460800      15.50020136  T        1       0.00307500      -0.00050600       0.00610200       0.00307500      -0.00050600       0.00610200
Ti       2.20740438       0.02948022      12.31621170  F        0       0.00000000       0.00000000       0.00000000       0.00000000       0.00000000       0.00000000
Ga       6.65558672       2.25357103      10.74354172  F        0       0.00000000       0.00000000       0.00000000       0.00000000       0.00000000       0.00000000