28
Lattice="11.6224365234375 0.0 -0.5910004377365112 1.932964761018098e-15 12.020008087158203 7.360131858906264e-16 0.0 0.0 30.444358825683594" Properties=species:S:1:pos:R:3:move_mask:L:1:tags:I:1:DFT_forces:R:3:forces:R:3:magmoms:R:1 DFT_energy=-62.02380483 energy=-62.02380483 dipole="_JSON [[0.0, 0.0, 0.0]]" magmom=0.0 free_energy=-62.02410809 pbc="T T T"
Ca       2.87152290      11.37783194       9.28934628  F        0       0.00000000       0.00000000       0.00000000       0.07868100      -0.00283600       0.04713900       0.00000000
Ca       2.76930895       2.64575754      14.78945011  T        1      -0.01744200      -0.00157600      -0.00932000      -0.01744200      -0.00157600      -0.00932000       0.00000000
Ca       0.07408620      11.36536740      13.07905741  T        1       0.00474300      -0.00344000       0.00291700       0.00474300      -0.00344000       0.00291700       0.00000000
Ca       1.41871834       2.36282587      11.26599365  F        0       0.00000000       0.00000000       0.00000000      -0.11815400       0.05823200      -0.02078000       0.00000000
Ca       2.87152290       5.36782789       9.28934628  F        0       0.00000000       0.00000000       0.00000000       0.15738000       0.00489900       0.18181000       0.00000000
Ca       2.11967720       8.54462235      14.91796046  T        1       0.00474000      -0.00777800       0.00302800       0.00474000      -0.00777800       0.00302800       0.00000000
Ca       0.02274739       5.42425735      13.16739912  T        1       0.00251300       0.00002200      -0.00787300       0.00251300       0.00002200      -0.00787300       0.00000000
Ca       1.41871834       8.37282991      11.26599365  F        0       0.00000000       0.00000000       0.00000000      -0.02756900      -0.00367400      -0.08933100       0.00000000
Ca       6.74566841      11.37783194       9.09234577  F        0       0.00000000       0.00000000       0.00000000       0.06419900      -0.00215100       0.01799900       0.00000000
Ca       6.34228750       2.24979550      14.77140449  T        1       0.01021800       0.00082100       0.00684000       0.01021800       0.00082100       0.00684000       0.00000000
Ca       3.92586565      11.38104081      12.92474118  T        1       0.00065000      -0.01022100       0.00854800       0.00065000      -0.01022100       0.00854800       0.00000000
Ca       5.29286385       2.36282587      11.06899315  F        0       0.00000000       0.00000000       0.00000000      -0.11409100       0.01149800      -0.10879700       0.00000000
Ca       6.74566841       5.36782789       9.09234577  F        0       0.00000000       0.00000000       0.00000000       0.10183500      -0.01016000       0.18389500       0.00000000
Ca       5.95335973       8.45201853      14.77753930  T        1       0.00036400      -0.00107400      -0.00048700       0.00036400      -0.00107400      -0.00048700       0.00000000
Ca       3.97398322       5.58331025      13.15586291  T        1      -0.00242700      -0.00286100      -0.00429600      -0.00242700      -0.00286100      -0.00429600       0.00000000
Ca       5.29286385       8.37282991      11.06899315  F        0       0.00000000       0.00000000       0.00000000      -0.03943000       0.09517900      -0.22335000       0.00000000
Ca      10.61981392      11.37783194       8.89534622  F        0       0.00000000       0.00000000       0.00000000       0.04359200       0.00096700       0.05420600       0.00000000
Ca      10.33267572       2.27512074      14.42263855  T        1       0.00198100       0.00008200       0.00460700       0.00198100       0.00008200       0.00460700       0.00000000
Ca       7.80869537      11.36882146      12.70676119  T        1      -0.00226700       0.00295700       0.00638800      -0.00226700       0.00295700       0.00638800       0.00000000
Ca       9.16700935       2.36282587      10.87199360  F        0       0.00000000       0.00000000       0.00000000      -0.13669500       0.06735800      -0.03530900       0.00000000
Ca      10.61981392       5.36782789       8.89534622  F        0       0.00000000       0.00000000       0.00000000       0.08616000      -0.00154800       0.03427900       0.00000000
Ca       9.91719314       8.50907469      14.49742377  T        1       0.00577500      -0.00265600      -0.00439000       0.00577500      -0.00265600      -0.00439000       0.00000000
Ca       7.72097597       5.25109603      13.04274737  T        1       0.00805500      -0.00894200      -0.00214700       0.00805500      -0.00894200      -0.00214700       0.00000000
Ca       9.16700935       8.37282991      10.87199360  F        0       0.00000000       0.00000000       0.00000000      -0.11775200      -0.14195200      -0.05244800       0.00000000
C        5.83192071       4.63220943      14.90151861  T        2      -0.00393000      -0.02447500      -0.01015200      -0.00393000      -0.02447500      -0.01015200       0.00000000
C        5.80799567       6.01166447      14.92811042  T        2       0.01043700      -0.03438700      -0.00233100       0.01043700      -0.03438700      -0.00233100       0.00000000
H        6.89497639       6.35314404      15.06651904  T        2      -0.01593100      -0.00039300       0.00697200      -0.01593100      -0.00039300       0.00697200       0.00000000
O        4.61163984       3.92205455      14.78341715  T        2       0.01436700       0.01811000       0.01238300       0.01436700       0.01811000       0.01238300       0.00000000
28
Lattice="11.6224365234375 0.0 -0.5910004377365112 1.932964761018098e-15 12.020008087158203 7.360131858906264e-16 0.0 0.0 30.444358825683594" Properties=species:S:1:pos:R:3:move_mask:L:1:tags:I:1:DFT_forces:R:3:forces:R:3 DFT_energy=-61.80828837 energy=-61.80828837 pbc="T T T"
Ca       2.87152290      11.37783194       9.28934628  F        0       0.00000000       0.00000000       0.00000000       0.00000000       0.00000000       0.00000000
Ca       2.58639145       2.86494242      14.91409418  T        1       0.00381400      -0.00320500      -0.00354800       0.00381400      -0.00320500      -0.00354800
Ca       0.12203039      11.39398022      13.12555188  T        1       0.00106900      -0.00348100       0.00026000       0.00106900      -0.00348100       0.00026000
Ca       1.41871834       2.36282587      11.26599365  F        0       0.00000000       0.00000000       0.00000000       0.00000000       0.00000000       0.00000000
Ca       2.87152290       5.36782789       9.28934628  F        0       0.00000000       0.00000000       0.00000000       0.00000000       0.00000000       0.00000000
Ca       2.80847998       7.88302845      14.79637890  T        1      -0.00265900       0.00071100      -0.00497900      -0.00265900       0.00071100      -0.00497900
Ca      -0.02698607       5.39204971      13.09609500  T        1       0.00357000       0.00085700      -0.00067800       0.00357000       0.00085700      -0.00067800
Ca       1.41871834       8.37282991      11.26599365  F        0       0.00000000       0.00000000       0.00000000       0.00000000       0.00000000       0.00000000
Ca       6.74566841      11.37783194       9.09234577  F        0       0.00000000       0.00000000       0.00000000       0.00000000       0.00000000       0.00000000
Ca       6.17178177       2.58528077      14.73052261  T        1       0.00130100      -0.00353500       0.00035300       0.00130100      -0.00353500       0.00035300
Ca       3.93907902      11.42730849      13.04525593  T        1      -0.00064800       0.00024300      -0.00364800      -0.00064800       0.00024300      -0.00364800
Ca       5.29286385       2.36282587      11.06899315  F        0       0.00000000       0.00000000       0.00000000       0.00000000       0.00000000       0.00000000
Ca       6.74566841       5.36782789       9.09234577  F        0       0.00000000       0.00000000       0.00000000       0.00000000       0.00000000       0.00000000
Ca       6.18005122       8.83821039      14.97108775  T        1      -0.01091800       0.01486700       0.00741900      -0.01091800       0.01486700       0.00741900
Ca       3.86936486       5.28756540      12.71964545  T        1       0.00609200       0.00040200       0.00583200       0.00609200       0.00040200       0.00583200
Ca       5.29286385       8.37282991      11.06899315  F        0       0.00000000       0.00000000       0.00000000       0.00000000       0.00000000       0.00000000
Ca      10.61981392      11.37783194       8.89534622  F        0       0.00000000       0.00000000       0.00000000       0.00000000       0.00000000       0.00000000
Ca      10.18971144       2.35651370      14.46853355  T        1       0.00428000      -0.00104900      -0.00180000       0.00428000      -0.00104900      -0.00180000
Ca       7.84987728      11.44072390      12.75349607  T        1       0.00121800       0.00006000      -0.00240800       0.00121800       0.00006000      -0.00240800
Ca       9.16700935       2.36282587      10.87199360  F        0       0.00000000       0.00000000       0.00000000       0.00000000       0.00000000       0.00000000
Ca      10.61981392       5.36782789       8.89534622  F        0       0.00000000       0.00000000       0.00000000       0.00000000       0.00000000       0.00000000
Ca      10.21166585       8.44373529      14.45473108  T        1      -0.01155800      -0.00270400       0.00186400      -0.01155800      -0.00270400       0.00186400
Ca       7.61492689       5.36233720      13.06989872  T        1       0.00809600      -0.01501400      -0.00930300       0.00809600      -0.01501400      -0.00930300
Ca       9.16700935       8.37282991      10.87199360  F        0       0.00000000       0.00000000       0.00000000       0.00000000       0.00000000       0.00000000
C        5.52460314       5.01184395      14.72714609  T        2       0.00571000       0.00220100      -0.00236400       0.00571000       0.00220100      -0.00236400
C        5.31987622       6.39194519      14.69117388  T        2       0.01345700      -0.00197600      -0.00329800       0.01345700      -0.00197600      -0.00329800
H        6.33274522       6.80127789      14.36834562  T        2       0.05426500      -0.00443500       0.03934000       0.05426500      -0.00443500       0.03934000
O        4.41996506       4.16167034      14.92389195  T        2      -0.00357200      -0.01028500       0.00105200      -0.00357200      -0.01028500       0.00105200
28
Lattice="11.6224365234375 0.0 -0.5910004377365112 1.932964761018098e-15 12.020008087158203 7.360131858906264e-16 0.0 0.0 30.444358825683594" Properties=species:S:1:pos:R:3:move_mask:L:1:tags:I:1:DFT_forces:R:3:forces:R:3 DFT_energy=-61.61730613 energy=-61.61730613 pbc="T T T"
Ca       2.87152290      11.37783194       9.28934628  F        0       0.00000000       0.00000000       0.00000000       0.00000000       0.00000000       0.00000000
Ca       2.58021580       2.82209363      14.92657589  T        1       0.01488800       0.00457300       0.03612900       0.01488800       0.00457300       0.03612900
Ca       0.15165608      11.43746412      13.10153628  T        1       0.00090200      -0.00925300       0.00905700       0.00090200      -0.00925300       0.00905700
Ca       1.41871834       2.36282587      11.26599365  F        0       0.00000000       0.00000000       0.00000000       0.00000000       0.00000000       0.00000000
Ca       2.87152290       5.36782789       9.28934628  F        0       0.00000000       0.00000000       0.00000000       0.00000000       0.00000000       0.00000000
Ca       2.89322389       7.83642031      14.82928245  T        1      -0.10365100       0.03900600      -0.01883600      -0.10365100       0.03900600      -0.01883600
Ca      -0.06567089       5.36703510      13.09763510  T        1      -0.00501300      -0.00524600       0.00770200      -0.00501300      -0.00524600       0.00770200
Ca       1.41871834       8.37282991      11.26599365  F        0       0.00000000       0.00000000       0.00000000       0.00000000       0.00000000       0.00000000
Ca       6.74566841      11.37783194       9.09234577  F        0       0.00000000       0.00000000       0.00000000       0.00000000       0.00000000       0.00000000
Ca       6.17305920       2.63266957      14.69619647  T        1       0.03692400      -0.02110500      -0.04726400       0.03692400      -0.02110500      -0.04726400
Ca       3.98557473      11.39294614      13.06621572  T        1       0.00582100       0.00879300       0.01214300       0.00582100       0.00879300       0.01214300
Ca       5.29286385       2.36282587      11.06899315  F        0       0.00000000       0.00000000       0.00000000       0.00000000       0.00000000       0.00000000
Ca       6.74566841       5.36782789       9.09234577  F        0       0.00000000       0.00000000       0.00000000       0.00000000       0.00000000       0.00000000
Ca       6.37653449       8.60641276      14.93166079  T        1      -0.02397200       0.05380900       0.07286700      -0.02397200       0.05380900       0.07286700
Ca       3.77732674       5.22421874      12.66310417  T        1      -0.08746700      -0.01395900      -0.05586900      -0.08746700      -0.01395900      -0.05586900
Ca       5.29286385       8.37282991      11.06899315  F        0       0.00000000       0.00000000       0.00000000       0.00000000       0.00000000       0.00000000
Ca      10.61981392      11.37783194       8.89534622  F        0       0.00000000       0.00000000       0.00000000       0.00000000       0.00000000       0.00000000
Ca      10.16857563       2.34360845      14.48826263  T        1       0.00255300       0.01129400       0.00107100       0.00255300       0.01129400       0.00107100
Ca       7.87314625      11.42786510      12.76220847  T        1      -0.00444500      -0.01042300       0.00548100      -0.00444500      -0.01042300       0.00548100
Ca       9.16700935       2.36282587      10.87199360  F        0       0.00000000       0.00000000       0.00000000       0.00000000       0.00000000       0.00000000
Ca      10.61981392       5.36782789       8.89534622  F        0       0.00000000       0.00000000       0.00000000       0.00000000       0.00000000       0.00000000
Ca      10.36895081       8.47639446      14.43386551  T        1      -0.03816500      -0.01573600       0.00684600      -0.03816500      -0.01573600       0.00684600
Ca       7.53498819       5.47099537      13.16869753  T        1       0.01554700      -0.03201300      -0.09242800       0.01554700      -0.03201300      -0.09242800
Ca       9.16700935       8.37282991      10.87199360  F        0       0.00000000       0.00000000       0.00000000       0.00000000       0.00000000       0.00000000
C        5.43267827       5.02951545      14.56207779  T        2      -0.05674800       0.03273900      -0.01477300      -0.05674800       0.03273900      -0.01477300
C        5.10803284       6.40621238      14.56837604  T        2      -0.23389200       0.00246400      -0.04633700      -0.23389200       0.00246400      -0.04633700
H        5.57760098       6.94039237      13.65949500  T        2       0.47474900      -0.09066800       0.05746900       0.47474900      -0.09066800       0.05746900
O        4.43308132       4.12179387      14.98574294  T        2       0.10376800       0.03292500       0.17083900       0.10376800       0.03292500       0.17083900
28
Lattice="11.6224365234375 0.0 -0.5910004377365112 1.932964761018098e-15 12.020008087158203 7.360131858906264e-16 0.0 0.0 30.444358825683594" Properties=species:S:1:pos:R:3:move_mask:L:1:tags:I:1:DFT_forces:R:3:forces:R:3 DFT_energy=-61.33864566 energy=-61.33864566 pbc="T T T"
Ca       2.87152290      11.37783194       9.28934628  F        0       0.00000000       0.00000000       0.00000000       0.00000000       0.00000000       0.00000000
Ca       2.56266687       2.80846120      14.89158933  T        1       0.00256900       0.00337000       0.00282500       0.00256900       0.00337000       0.00282500
Ca       0.15700155      11.44718595      13.08955778  T        1      -0.00057500      -0.00086800      -0.00018500      -0.00057500      -0.00086800      -0.00018500
Ca       1.41871834       2.36282587      11.26599365  F        0       0.00000000       0.00000000       0.00000000       0.00000000       0.00000000       0.00000000
Ca       2.87152290       5.36782789       9.28934628  F        0       0.00000000       0.00000000       0.00000000       0.00000000       0.00000000       0.00000000
Ca       2.99486689       7.79333094      14.85210919  T        1      -0.00000500      -0.00495700       0.00030400      -0.00000500      -0.00495700       0.00030400
Ca      -0.05753894       5.36996221      13.08926236  T        1       0.00461900      -0.00139800      -0.00044600       0.00461900      -0.00139800      -0.00044600
Ca       1.41871834       8.37282991      11.26599365  F        0       0.00000000       0.00000000       0.00000000       0.00000000       0.00000000       0.00000000
Ca       6.74566841      11.37783194       9.09234577  F        0       0.00000000       0.00000000       0.00000000       0.00000000       0.00000000       0.00000000
Ca       6.14497872       2.65947308      14.73713301  T        1       0.00528900      -0.00020100      -0.00167200       0.00528900      -0.00020100      -0.00167200
Ca       3.98515605      11.38146769      13.05707030  T        1       0.00357600      -0.00071800       0.00207800       0.00357600      -0.00071800       0.00207800
Ca       5.29286385       2.36282587      11.06899315  F        0       0.00000000       0.00000000       0.00000000       0.00000000       0.00000000       0.00000000
Ca       6.74566841       5.36782789       9.09234577  F        0       0.00000000       0.00000000       0.00000000       0.00000000       0.00000000       0.00000000
Ca       6.40878460       8.54574987      14.84695731  T        1       0.00029500      -0.00910700      -0.00601200       0.00029500      -0.00910700      -0.00601200
Ca       3.87664817       5.23307528      12.72285167  T        1       0.00728200       0.00091500       0.00684300       0.00728200       0.00091500       0.00684300
Ca       5.29286385       8.37282991      11.06899315  F        0       0.00000000       0.00000000       0.00000000       0.00000000       0.00000000       0.00000000
Ca      10.61981392      11.37783194       8.89534622  F        0       0.00000000       0.00000000       0.00000000       0.00000000       0.00000000       0.00000000
Ca      10.17236230       2.33120249      14.48455711  T        1       0.00269800      -0.00020300      -0.00108800       0.00269800      -0.00020300      -0.00108800
Ca       7.88388755      11.43864142      12.75613563  T        1       0.00250200       0.00136600      -0.00164700       0.00250200       0.00136600      -0.00164700
Ca       9.16700935       2.36282587      10.87199360  F        0       0.00000000       0.00000000       0.00000000       0.00000000       0.00000000       0.00000000
Ca      10.61981392       5.36782789       8.89534622  F        0       0.00000000       0.00000000       0.00000000       0.00000000       0.00000000       0.00000000
Ca      10.42345408       8.49139895      14.42320111  T        1       0.00309100      -0.00301700      -0.00021300       0.00309100      -0.00301700      -0.00021300
Ca       7.52093647       5.50209689      13.25803091  T        1      -0.00700700       0.00250000       0.00071400      -0.00700700       0.00250000       0.00071400
Ca       9.16700935       8.37282991      10.87199360  F        0       0.00000000       0.00000000       0.00000000       0.00000000       0.00000000       0.00000000
C        5.50378743       4.98515332      14.56672847  T        2       0.00541000      -0.00056200      -0.01024900       0.00541000      -0.00056200      -0.01024900
C        5.34020121       6.40407034      14.60924840  T        2       0.02068000       0.01240700       0.00474000       0.02068000       0.01240700       0.00474000
H        5.07941821       7.03273414      13.59856083  T        2      -0.00775000       0.00462200      -0.01332000      -0.00775000       0.00462200      -0.01332000
O        4.33446916       4.10027509      14.80824082  T        2       0.00123700      -0.00841500      -0.00807700       0.00123700      -0.00841500      -0.00807700
28
Lattice="11.6224365234375 0.0 -0.5910004377365112 1.932964761018098e-15 12.020008087158203 7.360131858906264e-16 0.0 0.0 30.444358825683594" Properties=species:S:1:pos:R:3:move_mask:L:1:tags:I:1:DFT_forces:R:3:forces:R:3 DFT_energy=-61.36007907 energy=-61.36007907 pbc="T T T"
Ca       2.87152290      11.37783194       9.28934628  F        0       0.00000000       0.00000000       0.00000000       0.00000000       0.00000000       0.00000000
Ca       2.56225400       2.81472366      14.87920315  T        1       0.00647900       0.00567400      -0.01232000       0.00647900       0.00567400      -0.01232000
Ca       0.15859046      11.44572751      13.08919662  T        1       0.00439000      -0.00337400       0.00047300       0.00439000      -0.00337400       0.00047300
Ca       1.41871834       2.36282587      11.26599365  F        0       0.00000000       0.00000000       0.00000000       0.00000000       0.00000000       0.00000000
Ca       2.87152290       5.36782789       9.28934628  F        0       0.00000000       0.00000000       0.00000000       0.00000000       0.00000000       0.00000000
Ca       2.95633971       7.81910030      14.85750579  T        1      -0.03479400       0.02454700      -0.00069700      -0.03479400       0.02454700      -0.00069700
Ca      -0.05049968       5.37212958      13.08809813  T        1       0.00721400       0.00116300      -0.00129400       0.00721400       0.00116300      -0.00129400
Ca       1.41871834       8.37282991      11.26599365  F        0       0.00000000       0.00000000       0.00000000       0.00000000       0.00000000       0.00000000
Ca       6.74566841      11.37783194       9.09234577  F        0       0.00000000       0.00000000       0.00000000       0.00000000       0.00000000       0.00000000
Ca       6.14571896       2.64329280      14.74555198  T        1      -0.00030200      -0.00812100       0.00372700      -0.00030200      -0.00812100       0.00372700
Ca       3.98495380      11.38002847      13.05935216  T        1       0.00549100      -0.00092600       0.00437100       0.00549100      -0.00092600       0.00437100
Ca       5.29286385       2.36282587      11.06899315  F        0       0.00000000       0.00000000       0.00000000       0.00000000       0.00000000       0.00000000
Ca       6.74566841       5.36782789       9.09234577  F        0       0.00000000       0.00000000       0.00000000       0.00000000       0.00000000       0.00000000
Ca       6.42078901       8.55172259      14.82938024  T        1       0.01767700       0.00062000      -0.01701700       0.01767700       0.00062000      -0.01701700
Ca       3.88027078       5.23834155      12.71278387  T        1       0.00680400       0.00211100      -0.02157800       0.00680400       0.00211100      -0.02157800
Ca       5.29286385       8.37282991      11.06899315  F        0       0.00000000       0.00000000       0.00000000       0.00000000       0.00000000       0.00000000
Ca      10.61981392      11.37783194       8.89534622  F        0       0.00000000       0.00000000       0.00000000       0.00000000       0.00000000       0.00000000
Ca      10.17573927       2.33023158      14.48406294  T        1       0.00882000      -0.00393800      -0.00309900       0.00882000      -0.00393800      -0.00309900
Ca       7.88571320      11.44074682      12.75303808  T        1       0.00615200       0.00271900      -0.00473200       0.00615200       0.00271900      -0.00473200
Ca       9.16700935       2.36282587      10.87199360  F        0       0.00000000       0.00000000       0.00000000       0.00000000       0.00000000       0.00000000
Ca      10.61981392       5.36782789       8.89534622  F        0       0.00000000       0.00000000       0.00000000       0.00000000       0.00000000       0.00000000
Ca      10.42580968       8.49307073      14.42231335  T        1       0.00768500      -0.00022200      -0.00212800       0.00768500      -0.00022200      -0.00212800
Ca       7.54872685       5.49441124      13.25586190  T        1       0.03343000      -0.01258800      -0.00674600       0.03343000      -0.01258800      -0.00674600
Ca       9.16700935       8.37282991      10.87199360  F        0       0.00000000       0.00000000       0.00000000       0.00000000       0.00000000       0.00000000
C        5.51595217       4.97752303      14.59484644  T        2       0.01942400       0.00378900       0.00792600       0.01942400       0.00378900       0.00792600
C        5.43957116       6.39216710      14.56643813  T        2       0.08627800      -0.01970500      -0.03250500       0.08627800      -0.01970500      -0.03250500
H        4.91395250       7.03438177      13.67928707  T        2      -0.13869500       0.00187700       0.07060200      -0.13869500       0.00187700       0.07060200
O        4.33164129       4.12157226      14.77700032  T        2       0.01769000       0.00827800      -0.01445700       0.01769000       0.00827800      -0.01445700
28
Lattice="11.6224365234375 0.0 -0.5910004377365112 1.932964761018098e-15 12.020008087158203 7.360131858906264e-16 0.0 0.0 30.444358825683594" Properties=species:S:1:pos:R:3:move_mask:L:1:tags:I:1:DFT_forces:R:3:forces:R:3 DFT_energy=-61.45348987 energy=-61.45348987 pbc="T T T"
Ca       2.87152290      11.37783194       9.28934628  F        0       0.00000000       0.00000000       0.00000000       0.00000000       0.00000000       0.00000000
Ca       2.56021651       2.81820686      14.86798115  T        1       0.01193300       0.00874700      -0.02254100       0.01193300       0.00874700      -0.02254100
Ca       0.16034200      11.44380837      13.09132216  T        1       0.00679700      -0.00915300       0.00489000       0.00679700      -0.00915300       0.00489000
Ca       1.41871834       2.36282587      11.26599365  F        0       0.00000000       0.00000000       0.00000000       0.00000000       0.00000000       0.00000000
Ca       2.87152290       5.36782789       9.28934628  F        0       0.00000000       0.00000000       0.00000000       0.00000000       0.00000000       0.00000000
Ca       2.86001237       7.88666803      14.85368140  T        1      -0.20676200       0.13482100      -0.00960500      -0.20676200       0.13482100      -0.00960500
Ca      -0.04123744       5.37403191      13.08977542  T        1       0.01667300       0.00472800       0.00494500       0.01667300       0.00472800       0.00494500
Ca       1.41871834       8.37282991      11.26599365  F        0       0.00000000       0.00000000       0.00000000       0.00000000       0.00000000       0.00000000
Ca       6.74566841      11.37783194       9.09234577  F        0       0.00000000       0.00000000       0.00000000       0.00000000       0.00000000       0.00000000
Ca       6.15563383       2.61112298      14.75062717  T        1       0.02014300      -0.06416200       0.01029600       0.02014300      -0.06416200       0.01029600
Ca       3.98714345      11.37962827      13.06226078  T        1       0.00925800       0.00041700       0.00761000       0.00925800       0.00041700       0.00761000
Ca       5.29286385       2.36282587      11.06899315  F        0       0.00000000       0.00000000       0.00000000       0.00000000       0.00000000       0.00000000
Ca       6.74566841       5.36782789       9.09234577  F        0       0.00000000       0.00000000       0.00000000       0.00000000       0.00000000       0.00000000
Ca       6.43801182       8.56261713      14.81688627  T        1       0.05267300       0.03133800      -0.02065900       0.05267300       0.03133800      -0.02065900
Ca       3.86717473       5.24104034      12.68619431  T        1      -0.02261600       0.00783600      -0.05303000      -0.02261600       0.00783600      -0.05303000
Ca       5.29286385       8.37282991      11.06899315  F        0       0.00000000       0.00000000       0.00000000       0.00000000       0.00000000       0.00000000
Ca      10.61981392      11.37783194       8.89534622  F        0       0.00000000       0.00000000       0.00000000       0.00000000       0.00000000       0.00000000
Ca      10.17977106       2.33024259      14.48408348  T        1       0.01102900      -0.00171900      -0.00320600       0.01102900      -0.00171900      -0.00320600
Ca       7.88631420      11.44066854      12.75005314  T        1       0.00942800       0.00406100      -0.00903300       0.00942800       0.00406100      -0.00903300
Ca       9.16700935       2.36282587      10.87199360  F        0       0.00000000       0.00000000       0.00000000       0.00000000       0.00000000       0.00000000
Ca      10.61981392       5.36782789       8.89534622  F        0       0.00000000       0.00000000       0.00000000       0.00000000       0.00000000       0.00000000
Ca      10.41898248       8.49533092      14.42339651  T        1      -0.00927100       0.00173400       0.00151200      -0.00927100       0.00173400       0.00151200
Ca       7.59230383       5.47977605      13.23678193  T        1       0.10702100      -0.03022600      -0.04879400       0.10702100      -0.03022600      -0.04879400
Ca       9.16700935       8.37282991      10.87199360  F        0       0.00000000       0.00000000       0.00000000       0.00000000       0.00000000       0.00000000
C        5.52437872       4.97114877      14.64813813  T        2       0.02368400      -0.00100000       0.11696000       0.02368400      -0.00100000       0.11696000