53
Lattice="10.779593467712402 2.122913880424021e-31 1.7334908312803153e-15 -1.7454904294067117e-15 10.854211807250977 -3.074748021499713e-15 -0.0 3.747883622375048e-15 30.60379409790039" Properties=species:S:1:pos:R:3:move_mask:L:1:tags:I:1:DFT_forces:R:3:forces:R:3:magmoms:R:1 DFT_energy=-497.81940993 energy=-497.81940993 dipole="_JSON [[0.0, 0.0, 0.0]]" magmom=0.0 free_energy=-497.83301505 pbc="T T T"
Zr       8.70559180       0.59961763      13.93178720  T        1      -0.00206800      -0.00940400      -0.00414300      -0.00206800      -0.00940400      -0.00414300       0.00000000
Zr       5.98687460       0.58462358       8.27741146  F        0       0.00000000       0.00000000       0.00000000       0.01841900      -0.03343500       1.31731200       0.00000000
Zr       5.98687460       8.72528231      10.19082260  F        0       0.00000000       0.00000000       0.00000000       0.07484600       0.07691100      -0.24838900       0.00000000
Zr       8.68177279       8.72528231      12.10288620  F        0       0.00000000       0.00000000       0.00000000       0.04060800       0.00194400      -0.89709000       0.00000000
Mo      10.02922209       0.58462358      11.14685440  F        0       0.00000000       0.00000000       0.00000000      -0.04377300       0.02455800      -0.28028100       0.00000000
Mo       7.33432373       0.58462358      11.14685440  F        0       0.00000000       0.00000000       0.00000000       0.16789800       0.05836100      -0.37498900       0.00000000
Mo       7.69100806       8.77479575      14.87288676  T        1       0.00130200      -0.00485300      -0.01644400       0.00130200      -0.00485300      -0.01644400       0.00000000
Mo       9.69352420       8.71004535      14.86955980  T        1      -0.00545300      -0.00566100      -0.00328300      -0.00545300      -0.00566100      -0.00328300       0.00000000
W        5.96883150      10.11333265      13.09336075  T        1       0.00309600      -0.01520300       0.00672700       0.00309600      -0.01520300       0.00672700       0.00000000
W        5.98599116       1.95734507      13.05891985  T        1       0.01524600      -0.00414500       0.00726100       0.01524600      -0.00414500       0.00726100       0.00000000
W        8.68177279       1.94140005       9.23411655  F        0       0.00000000       0.00000000       0.00000000       0.00043100       0.29775500       0.16357900       0.00000000
W        8.68177279      10.08205891       9.23411655  F        0       0.00000000       0.00000000       0.00000000      -0.04356100      -0.32828500       0.12702300       0.00000000
Zr       8.65555084       5.97508081      13.96273022  T        1      -0.00213100       0.01081500       0.00090400      -0.00213100       0.01081500       0.00090400       0.00000000
Zr       5.98687460       6.01172924       8.27741146  F        0       0.00000000       0.00000000       0.00000000      -0.00018300       0.02366700       1.36240100       0.00000000
Zr       5.98687460       3.29817677      10.19082260  F        0       0.00000000       0.00000000       0.00000000       0.00303100       0.06610600      -0.19833300       0.00000000
Zr       8.68177279       3.29817677      12.10288620  F        0       0.00000000       0.00000000       0.00000000      -0.01950100       0.02510000      -0.83566300       0.00000000
Mo      10.02922209       6.01172924      11.14685440  F        0       0.00000000       0.00000000       0.00000000      -0.15647600      -0.01554300      -0.20891400       0.00000000
Mo       7.33432373       6.01172924      11.14685440  F        0       0.00000000       0.00000000       0.00000000       0.11136400      -0.02876200      -0.33329000       0.00000000
Mo       7.55163719       3.16796685      14.87833686  T        1      -0.01225700       0.00618200       0.01829300      -0.01225700       0.00618200       0.01829300       0.00000000
Mo       9.77002415       3.30966104      14.87155925  T        1       0.00132700      -0.01150400       0.01328900       0.00132700      -0.01150400       0.01328900       0.00000000
W        5.96743261       4.71939570      13.15965248  T        1      -0.01236600      -0.01025000      -0.01634100      -0.01236600      -0.01025000      -0.01634100       0.00000000
W        6.01872951       7.41402729      12.99514979  T        1       0.00880900      -0.02977200      -0.01809400       0.00880900      -0.02977200      -0.01809400       0.00000000
W        8.68177279       7.36850643       9.23411655  F        0       0.00000000       0.00000000       0.00000000       0.02248200       0.28973700       0.06112000       0.00000000
W        8.68177279       4.65495300       9.23411655  F        0       0.00000000       0.00000000       0.00000000      -0.02935900      -0.27448200       0.18450000       0.00000000
Zr       3.32558151       0.57986733      13.96437911  T        1      -0.00244800       0.03051000      -0.02052500      -0.00244800       0.03051000      -0.02052500       0.00000000
Zr       0.59707793       0.58462358       8.27741146  F        0       0.00000000       0.00000000       0.00000000      -0.02947700       0.00118800       1.39002500       0.00000000
Zr       0.59707793       8.72528231      10.19082260  F        0       0.00000000       0.00000000       0.00000000      -0.04427200       0.01609700      -0.27065600       0.00000000
Zr       3.29197653       8.72528231      12.10288620  F        0       0.00000000       0.00000000       0.00000000      -0.04513800      -0.05139300      -0.83369200       0.00000000
Mo       4.63942488       0.58462358      11.14685440  F        0       0.00000000       0.00000000       0.00000000      -0.06085200       0.01416400      -0.27449100       0.00000000
Mo       1.94452675       0.58462358      11.14685440  F        0       0.00000000       0.00000000       0.00000000       0.11455400       0.01235200      -0.43630100       0.00000000
Mo       2.21084513       8.83795975      14.78409885  T        1       0.02787600      -0.02070600       0.01618000       0.02787600      -0.02070600       0.01618000       0.00000000
Mo       4.39529087       8.52729945      14.84377586  T        1      -0.03120700       0.02095100       0.01891000      -0.03120700       0.02095100       0.01891000       0.00000000
W        0.62454463      10.09137515      13.07616084  T        1      -0.01074400       0.01709200      -0.00475500      -0.01074400       0.01709200      -0.00475500       0.00000000
W        0.60654103       1.91933473      13.08698146  T        1       0.00526600      -0.01674500      -0.02009900       0.00526600      -0.01674500      -0.02009900       0.00000000
W        3.29197653       1.94140005       9.23411655  F        0       0.00000000       0.00000000       0.00000000      -0.00058400       0.33003800       0.16397800       0.00000000
W        3.29197653      10.08205891       9.23411655  F        0       0.00000000       0.00000000       0.00000000       0.05386000      -0.31384700       0.20553600       0.00000000
Zr       3.20840864       5.98825409      13.96782027  T        1       0.00165800      -0.00478600       0.00423100       0.00165800      -0.00478600       0.00423100       0.00000000
Zr       0.59707793       6.01172924       8.27741146  F        0       0.00000000       0.00000000       0.00000000       0.01412800       0.00610600       1.40688200       0.00000000
Zr       0.59707793       3.29817677      10.19082260  F        0       0.00000000       0.00000000       0.00000000      -0.01232100      -0.00741700      -0.22940500       0.00000000
Zr       3.29197653       3.29817677      12.10288620  F        0       0.00000000       0.00000000       0.00000000       0.01259400       0.00452700      -0.55382500       0.00000000
Mo       4.63942488       6.01172924      11.14685440  F        0       0.00000000       0.00000000       0.00000000      -0.25399900      -0.13547400      -0.33440800       0.00000000
Mo       1.94452675       6.01172924      11.14685440  F        0       0.00000000       0.00000000       0.00000000       0.03838500      -0.00371700      -0.39909600       0.00000000
Mo       2.20916528       3.24942267      14.88334190  T        1      -0.00326700       0.00775000       0.01259200      -0.00326700       0.00775000       0.01259200       0.00000000
Mo       4.37425130       3.33071670      14.92291350  T        1      -0.00525600      -0.03076600      -0.03061900      -0.00525600      -0.03076600      -0.03061900       0.00000000
W        0.57017106       4.63398751      13.08209760  T        1       0.00829500       0.03533900      -0.00935800       0.00829500       0.03533900      -0.00935800       0.00000000
W        0.57370290       7.32057669      13.05636011  T        1       0.00817400      -0.01912600       0.00558900       0.00817400      -0.01912600       0.00558900       0.00000000
W        3.29197653       7.36850643       9.23411655  F        0       0.00000000       0.00000000       0.00000000       0.02072400       0.32328500       0.12823900       0.00000000
W        3.29197653       4.65495300       9.23411655  F        0       0.00000000       0.00000000       0.00000000       0.02701900      -0.33873900       0.21495300       0.00000000
C        5.40546535       5.42873134      15.31907927  T        2       0.00737500       0.03868700      -0.00989600       0.00737500       0.03868700      -0.00989600       0.00000000
C        5.55067635       4.64318346      16.49357172  T        2       0.00889600      -0.02111500       0.02595400       0.00889600      -0.02111500       0.02595400       0.00000000
H        5.10273884       4.97058075      17.44533305  T        2      -0.01166300       0.01360000       0.00493500      -0.01166300       0.01360000       0.00493500       0.00000000
O        4.54788326       6.54229098      15.61475677  T        2       0.01630800      -0.01174700      -0.00748400       0.01630800      -0.01174700      -0.00748400       0.00000000
O        6.30814262       3.51658517      16.55073609  T        2       0.00438500      -0.00594600       0.00945300       0.00438500      -0.00594600       0.00945300       0.00000000
53
Lattice="10.779593467712402 2.122913880424021e-31 1.7334908312803153e-15 -1.7454904294067117e-15 10.854211807250977 -3.074748021499713e-15 -0.0 3.747883622375048e-15 30.60379409790039" Properties=species:S:1:pos:R:3:move_mask:L:1:tags:I:1:DFT_forces:R:3:forces:R:3 DFT_energy=-497.61886995 energy=-497.61886995 pbc="T T T"
Zr       8.69398943       0.60928503      13.93820736  T        1       0.01034400      -0.00857500      -0.01093500       0.01034400      -0.00857500      -0.01093500
Zr       5.98687460       0.58462358       8.27741146  F        0       0.00000000       0.00000000       0.00000000       0.00000000       0.00000000       0.00000000
Zr       5.98687460       8.72528231      10.19082260  F        0       0.00000000       0.00000000       0.00000000       0.00000000       0.00000000       0.00000000
Zr       8.68177279       8.72528231      12.10288620  F        0       0.00000000       0.00000000       0.00000000       0.00000000       0.00000000       0.00000000
Mo      10.02922209       0.58462358      11.14685440  F        0       0.00000000       0.00000000       0.00000000       0.00000000       0.00000000       0.00000000
Mo       7.33432373       0.58462358      11.14685440  F        0       0.00000000       0.00000000       0.00000000       0.00000000       0.00000000       0.00000000
Mo       7.69374629       8.77763462      14.86668840  T        1       0.00433100      -0.00358900       0.00258500       0.00433100      -0.00358900       0.00258500
Mo       9.69656288       8.72194343      14.86781694  T        1       0.00263000      -0.01326500      -0.00785300       0.00263000      -0.01326500      -0.00785300
W        5.97040139      10.11561462      13.08982484  T        1       0.00514400      -0.00162700      -0.00103000       0.00514400      -0.00162700      -0.00103000
W        5.98080262       1.95060755      13.06672473  T        1       0.00321700       0.00279600      -0.00091600       0.00321700       0.00279600      -0.00091600
W        8.68177279       1.94140005       9.23411655  F        0       0.00000000       0.00000000       0.00000000       0.00000000       0.00000000       0.00000000
W        8.68177279      10.08205891       9.23411655  F        0       0.00000000       0.00000000       0.00000000       0.00000000       0.00000000       0.00000000
Zr       8.67605146       5.98984869      13.95024242  T        1      -0.00428600      -0.01539200       0.00391000      -0.00428600      -0.01539200       0.00391000
Zr       5.98687460       6.01172924       8.27741146  F        0       0.00000000       0.00000000       0.00000000       0.00000000       0.00000000       0.00000000
Zr       5.98687460       3.29817677      10.19082260  F        0       0.00000000       0.00000000       0.00000000       0.00000000       0.00000000       0.00000000
Zr       8.68177279       3.29817677      12.10288620  F        0       0.00000000       0.00000000       0.00000000       0.00000000       0.00000000       0.00000000
Mo      10.02922209       6.01172924      11.14685440  F        0       0.00000000       0.00000000       0.00000000       0.00000000       0.00000000       0.00000000
Mo       7.33432373       6.01172924      11.14685440  F        0       0.00000000       0.00000000       0.00000000       0.00000000       0.00000000       0.00000000
Mo       7.60810557       3.23359371      14.86600662  T        1       0.02786100      -0.09728400      -0.01523100       0.02786100      -0.09728400      -0.01523100
Mo       9.76697980       3.30824269      14.89103038  T        1       0.01382000      -0.00669500      -0.00562900       0.01382000      -0.00669500      -0.00562900
W        5.97409185       4.69343959      13.11396354  T        1       0.00243500      -0.00077000       0.01409000       0.00243500      -0.00077000       0.01409000
W        6.03081310       7.41277258      12.97812178  T        1       0.00875800      -0.00551400      -0.00140500       0.00875800      -0.00551400      -0.00140500
W        8.68177279       7.36850643       9.23411655  F        0       0.00000000       0.00000000       0.00000000       0.00000000       0.00000000       0.00000000
W        8.68177279       4.65495300       9.23411655  F        0       0.00000000       0.00000000       0.00000000       0.00000000       0.00000000       0.00000000
Zr       3.30797710       0.57794256      13.96500688  T        1       0.00677600       0.00253800       0.00282700       0.00677600       0.00253800       0.00282700
Zr       0.59707793       0.58462358       8.27741146  F        0       0.00000000       0.00000000       0.00000000       0.00000000       0.00000000       0.00000000
Zr       0.59707793       8.72528231      10.19082260  F        0       0.00000000       0.00000000       0.00000000       0.00000000       0.00000000       0.00000000
Zr       3.29197653       8.72528231      12.10288620  F        0       0.00000000       0.00000000       0.00000000       0.00000000       0.00000000       0.00000000
Mo       4.63942488       0.58462358      11.14685440  F        0       0.00000000       0.00000000       0.00000000       0.00000000       0.00000000       0.00000000
Mo       1.94452675       0.58462358      11.14685440  F        0       0.00000000       0.00000000       0.00000000       0.00000000       0.00000000       0.00000000
Mo       2.25040987       8.79159085      14.79883438  T        1       0.01851100       0.00381200       0.01814500       0.01851100       0.00381200       0.01814500
Mo       4.41226751       8.52339209      14.84961527  T        1      -0.01825800       0.02691700       0.00740100      -0.01825800       0.02691700       0.00740100
W        0.61937127      10.09279900      13.08552172  T        1       0.00463600       0.00653700      -0.00007800       0.00463600       0.00653700      -0.00007800
W        0.60649732       1.91415009      13.08567496  T        1       0.00607100      -0.00490600      -0.00071100       0.00607100      -0.00490600      -0.00071100
W        3.29197653       1.94140005       9.23411655  F        0       0.00000000       0.00000000       0.00000000       0.00000000       0.00000000       0.00000000
W        3.29197653      10.08205891       9.23411655  F        0       0.00000000       0.00000000       0.00000000       0.00000000       0.00000000       0.00000000
Zr       3.27058171       5.97525848      13.99047187  T        1      -0.02343000       0.02016200      -0.01200400      -0.02343000       0.02016200      -0.01200400
Zr       0.59707793       6.01172924       8.27741146  F        0       0.00000000       0.00000000       0.00000000       0.00000000       0.00000000       0.00000000
Zr       0.59707793       3.29817677      10.19082260  F        0       0.00000000       0.00000000       0.00000000       0.00000000       0.00000000       0.00000000
Zr       3.29197653       3.29817677      12.10288620  F        0       0.00000000       0.00000000       0.00000000       0.00000000       0.00000000       0.00000000
Mo       4.63942488       6.01172924      11.14685440  F        0       0.00000000       0.00000000       0.00000000       0.00000000       0.00000000       0.00000000
Mo       1.94452675       6.01172924      11.14685440  F        0       0.00000000       0.00000000       0.00000000       0.00000000       0.00000000       0.00000000
Mo       2.21102607       3.26156408      14.88615402  T        1       0.03453500      -0.00983600       0.01935400       0.03453500      -0.00983600       0.01935400
Mo       4.39762692       3.28733947      14.91864158  T        1      -0.01153200       0.06367200       0.01494100      -0.01153200       0.06367200       0.01494100
W        0.59397631       4.64260102      13.08432289  T        1       0.00067300      -0.00231100      -0.00077400       0.00067300      -0.00231100      -0.00077400
W        0.59532253       7.32117316      13.06495712  T        1      -0.00597900      -0.00639500       0.00075400      -0.00597900      -0.00639500       0.00075400
W        3.29197653       7.36850643       9.23411655  F        0       0.00000000       0.00000000       0.00000000       0.00000000       0.00000000       0.00000000
W        3.29197653       4.65495300       9.23411655  F        0       0.00000000       0.00000000       0.00000000       0.00000000       0.00000000       0.00000000
C        5.49488561       5.35949342      15.28051805  T        2       0.03435900       0.01609300      -0.00632100       0.03435900       0.01609300      -0.00632100
C        5.81111693       4.64108663      16.46220163  T        2      -0.14069800      -0.00154200       0.04401800      -0.14069800      -0.00154200       0.04401800
H        5.74302994       5.12707837      17.44759707  T        2      -0.29394800      -0.02079800       0.07163400      -0.29394800      -0.02079800       0.07163400
O        4.71939120       6.51444223      15.61152765  T        2      -0.02475800       0.00733100      -0.04429900      -0.02475800       0.00733100      -0.04429900
O        6.18310750       3.32442730      16.47524320  T        2       0.09855400       0.03358800       0.02252900       0.09855400       0.03358800       0.02252900
53
Lattice="10.779593467712402 2.122913880424021e-31 1.7334908312803153e-15 -1.7454904294067117e-15 10.854211807250977 -3.074748021499713e-15 -0.0 3.747883622375048e-15 30.60379409790039" Properties=species:S:1:pos:R:3:move_mask:L:1:tags:I:1:DFT_forces:R:3:forces:R:3 DFT_energy=-497.47278682 energy=-497.47278682 pbc="T T T"
Zr       8.67698870       0.62643243      13.95613007  T        1      -0.00502800       0.00219200      -0.00057400      -0.00502800       0.00219200      -0.00057400
Zr       5.98687460       0.58462358       8.27741146  F        0       0.00000000       0.00000000       0.00000000       0.00000000       0.00000000       0.00000000
Zr       5.98687460       8.72528231      10.19082260  F        0       0.00000000       0.00000000       0.00000000       0.00000000       0.00000000       0.00000000
Zr       8.68177279       8.72528231      12.10288620  F        0       0.00000000       0.00000000       0.00000000       0.00000000       0.00000000       0.00000000
Mo      10.02922209       0.58462358      11.14685440  F        0       0.00000000       0.00000000       0.00000000       0.00000000       0.00000000       0.00000000
Mo       7.33432373       0.58462358      11.14685440  F        0       0.00000000       0.00000000       0.00000000       0.00000000       0.00000000       0.00000000
Mo       7.68741839       8.78548440      14.86374654  T        1       0.00185000      -0.00020900      -0.00050300       0.00185000      -0.00020900      -0.00050300
Mo       9.69186864       8.74583410      14.88054611  T        1      -0.00053000       0.00467500       0.00203000      -0.00053000       0.00467500       0.00203000
W        5.96447397      10.11902010      13.08821478  T        1       0.00064500       0.00459400       0.00056400       0.00064500       0.00459400       0.00056400
W        5.97814556       1.94716633      13.06757273  T        1      -0.00211300      -0.00051200      -0.00045200      -0.00211300      -0.00051200      -0.00045200
W        8.68177279       1.94140005       9.23411655  F        0       0.00000000       0.00000000       0.00000000       0.00000000       0.00000000       0.00000000
W        8.68177279      10.08205891       9.23411655  F        0       0.00000000       0.00000000       0.00000000       0.00000000       0.00000000       0.00000000
Zr       8.68752123       6.01806931      13.94450534  T        1       0.01004400       0.00967900      -0.01109700       0.01004400       0.00967900      -0.01109700
Zr       5.98687460       6.01172924       8.27741146  F        0       0.00000000       0.00000000       0.00000000       0.00000000       0.00000000       0.00000000
Zr       5.98687460       3.29817677      10.19082260  F        0       0.00000000       0.00000000       0.00000000       0.00000000       0.00000000       0.00000000
Zr       8.68177279       3.29817677      12.10288620  F        0       0.00000000       0.00000000       0.00000000       0.00000000       0.00000000       0.00000000
Mo      10.02922209       6.01172924      11.14685440  F        0       0.00000000       0.00000000       0.00000000       0.00000000       0.00000000       0.00000000
Mo       7.33432373       6.01172924      11.14685440  F        0       0.00000000       0.00000000       0.00000000       0.00000000       0.00000000       0.00000000
Mo       7.56131066       3.40688685      14.89159045  T        1      -0.00032500       0.01481100      -0.00386800      -0.00032500       0.01481100      -0.00386800
Mo       9.74276561       3.31998364      14.90205664  T        1      -0.00391500       0.00205600      -0.00318400      -0.00391500       0.00205600      -0.00318400
W        5.96758239       4.69132357      13.09022785  T        1       0.00080400       0.00301100       0.00312700       0.00080400       0.00301100       0.00312700
W        6.01874838       7.42270529      12.97641841  T        1       0.00030800       0.00293100      -0.00457300       0.00030800       0.00293100      -0.00457300
W        8.68177279       7.36850643       9.23411655  F        0       0.00000000       0.00000000       0.00000000       0.00000000       0.00000000       0.00000000
W        8.68177279       4.65495300       9.23411655  F        0       0.00000000       0.00000000       0.00000000       0.00000000       0.00000000       0.00000000
Zr       3.29321655       0.57483944      13.95761265  T        1      -0.00550900      -0.00438100      -0.00020600      -0.00550900      -0.00438100      -0.00020600
Zr       0.59707793       0.58462358       8.27741146  F        0       0.00000000       0.00000000       0.00000000       0.00000000       0.00000000       0.00000000
Zr       0.59707793       8.72528231      10.19082260  F        0       0.00000000       0.00000000       0.00000000       0.00000000       0.00000000       0.00000000
Zr       3.29197653       8.72528231      12.10288620  F        0       0.00000000       0.00000000       0.00000000       0.00000000       0.00000000       0.00000000
Mo       4.63942488       0.58462358      11.14685440  F        0       0.00000000       0.00000000       0.00000000       0.00000000       0.00000000       0.00000000
Mo       1.94452675       0.58462358      11.14685440  F        0       0.00000000       0.00000000       0.00000000       0.00000000       0.00000000       0.00000000
Mo       2.21525384       8.78377205      14.77265999  T        1      -0.00972300       0.00013300      -0.00556500      -0.00972300       0.00013300      -0.00556500
Mo       4.44535352       8.48028405      14.84163315  T        1       0.01371700      -0.00894200      -0.00448900       0.01371700      -0.00894200      -0.00448900
W        0.60905145      10.08894323      13.08502094  T        1       0.00015000       0.00028000       0.00183700       0.00015000       0.00028000       0.00183700
W        0.59550789       1.92309288      13.08794265  T        1       0.00126000      -0.00103800      -0.00120700       0.00126000      -0.00103800      -0.00120700
W        3.29197653       1.94140005       9.23411655  F        0       0.00000000       0.00000000       0.00000000       0.00000000       0.00000000       0.00000000
W        3.29197653      10.08205891       9.23411655  F        0       0.00000000       0.00000000       0.00000000       0.00000000       0.00000000       0.00000000
Zr       3.31100099       5.93794330      14.01042031  T        1      -0.00132300       0.00083400      -0.00328400      -0.00132300       0.00083400      -0.00328400
Zr       0.59707793       6.01172924       8.27741146  F        0       0.00000000       0.00000000       0.00000000       0.00000000       0.00000000       0.00000000
Zr       0.59707793       3.29817677      10.19082260  F        0       0.00000000       0.00000000       0.00000000       0.00000000       0.00000000       0.00000000
Zr       3.29197653       3.29817677      12.10288620  F        0       0.00000000       0.00000000       0.00000000       0.00000000       0.00000000       0.00000000
Mo       4.63942488       6.01172924      11.14685440  F        0       0.00000000       0.00000000       0.00000000       0.00000000       0.00000000       0.00000000
Mo       1.94452675       6.01172924      11.14685440  F        0       0.00000000       0.00000000       0.00000000       0.00000000       0.00000000       0.00000000
Mo       2.14521664       3.28046170      14.85902060  T        1      -0.00110200      -0.00055800       0.00192200      -0.00110200      -0.00055800       0.00192200
Mo       4.42313377       3.17293064      14.88721263  T        1      -0.01392000      -0.00326700      -0.00765600      -0.01392000      -0.00326700      -0.00765600
W        0.59164703       4.64638849      13.08552135  T        1       0.00345500       0.00153500      -0.00160000       0.00345500       0.00153500      -0.00160000
W        0.60510594       7.32995620      13.06300925  T        1       0.00319900      -0.00077200      -0.00009100       0.00319900      -0.00077200      -0.00009100
W        3.29197653       7.36850643       9.23411655  F        0       0.00000000       0.00000000       0.00000000       0.00000000       0.00000000       0.00000000
W        3.29197653       4.65495300       9.23411655  F        0       0.00000000       0.00000000       0.00000000       0.00000000       0.00000000       0.00000000
C        5.43253914       5.33276393      15.28545157  T        2      -0.01345900      -0.02801700       0.00535600      -0.01345900      -0.02801700       0.00535600
C        6.06529321       4.64582217      16.38207406  T        2      -0.04365400       0.00023700       0.03376400      -0.04365400       0.00023700       0.03376400
H        6.27705868       5.17095236      17.32691538  T        2      -0.05172400      -0.03205400       0.05397400      -0.05172400      -0.03205400       0.05397400
O        4.76399488       6.50137800      15.68980370  T        2       0.01068600      -0.00485000       0.00689100       0.01068600      -0.00485000       0.00689100
O        6.01075721       3.25922644      16.44060391  T        2      -0.00411800      -0.06582800       0.00826300      -0.00411800      -0.06582800       0.00826300
53
Lattice="10.779593467712402 2.122913880424021e-31 1.7334908312803153e-15 -1.7454904294067117e-15 10.854211807250977 -3.074748021499713e-15 -0.0 3.747883622375048e-15 30.60379409790039" Properties=species:S:1:pos:R:3:move_mask:L:1:tags:I:1:DFT_forces:R:3:forces:R:3 DFT_energy=-497.44023432 energy=-497.44023432 pbc="T T T"
Zr       8.69445701       0.61225893      13.95305927  T        1      -0.00063900      -0.00388200      -0.00292300      -0.00063900      -0.00388200      -0.00292300
Zr       5.98687460       0.58462358       8.27741146  F        0       0.00000000       0.00000000       0.00000000       0.00000000       0.00000000       0.00000000
Zr       5.98687460       8.72528231      10.19082260  F        0       0.00000000       0.00000000       0.00000000       0.00000000       0.00000000       0.00000000
Zr       8.68177279       8.72528231      12.10288620  F        0       0.00000000       0.00000000       0.00000000       0.00000000       0.00000000       0.00000000
Mo      10.02922209       0.58462358      11.14685440  F        0       0.00000000       0.00000000       0.00000000       0.00000000       0.00000000       0.00000000