66
Lattice="11.151508331298828 0.0 -1.793299192411231e-15 2.1648832290092727e-15 13.462177276611328 -2.1648832290092727e-15 0.0 0.0 29.737356185913086" Properties=species:S:1:pos:R:3:move_mask:L:1:tags:I:1:DFT_forces:R:3:forces:R:3:magmoms:R:1 DFT_energy=-339.81360917 energy=-339.81360917 dipole="_JSON [[0.0, 0.0, 0.0]]" magmom=0.0 free_energy=-339.80563187 pbc="T T T"
K       11.06817913       7.56710339       9.26366425  F        0       0.00000000       0.00000000       0.00000000      -0.00438800      -0.02554000      -0.33080600       0.00000000
K        1.77525556       0.83601475       7.40507984  F        0       0.00000000       0.00000000       0.00000000       0.00298400      -0.00826800      -0.07605400       0.00000000
Co       1.77525556       4.20155907       9.26366425  F        0       0.00000000       0.00000000       0.00000000       0.03830900      -0.11181900      -0.20917700       0.00000000
Co      11.06817913       4.20155907       7.40507984  F        0       0.00000000       0.00000000       0.00000000      -0.00320700       0.70983500       1.15684000       0.00000000
Co      11.06817913      10.93264771       7.40507984  F        0       0.00000000       0.00000000       0.00000000      -0.01051400      -0.76453200       1.01515800       0.00000000
Co       1.77525556      10.93264771       9.26366425  F        0       0.00000000       0.00000000       0.00000000      -0.02476600       0.09793500      -0.33465500       0.00000000
P       11.06817913       2.98880100       9.26366425  F        0       0.00000000       0.00000000       0.00000000      -0.00827400       0.40320700      -0.08333900       0.00000000
P        1.77525556       5.41431713       7.40507984  F        0       0.00000000       0.00000000       0.00000000      -0.03426400      -1.07326700      -0.30421500       0.00000000
P        1.77525556       9.71988964       7.40507984  F        0       0.00000000       0.00000000       0.00000000       0.03463000       1.11584000      -0.31319900       0.00000000
P       11.06817913      12.14540577       9.26366425  F        0       0.00000000       0.00000000       0.00000000      -0.02799000      -0.22691500      -0.38953800       0.00000000
K       11.06256294       7.37215082      13.18534992  T        1       0.00435800       0.00954500      -0.01834300       0.00435800       0.00954500      -0.01834300       0.00000000
K        1.75462244       0.74924523      11.60419281  T        1       0.01295300      -0.00200700      -0.00730900       0.01295300      -0.00200700      -0.00730900       0.00000000
Co       1.82561796       4.07902632      12.75981458  T        1       0.02382700      -0.00567200       0.02632400       0.02382700      -0.00567200       0.02632400       0.00000000
Co      11.05758481       4.26918418      11.09388051  T        1      -0.01895600       0.02268900      -0.02039900      -0.01895600       0.02268900      -0.02039900       0.00000000
Co      11.04997490      10.91534158      11.08403115  T        1       0.01849800       0.00491600      -0.02548600       0.01849800       0.00491600      -0.02548600       0.00000000
Co       1.69843415      10.86347646      12.83719087  T        1      -0.00073700       0.00678600       0.00735700      -0.00073700       0.00678600       0.00735700       0.00000000
P       11.05506959       3.70518422      13.40629948  T        1      -0.00914000       0.02007500       0.00649700      -0.00914000       0.02007500       0.00649700       0.00000000
P        1.81283507       5.41171696      11.10057826  T        1       0.00011300       0.01337100       0.01972500       0.00011300       0.01337100       0.01972500       0.00000000
P        1.74624283       9.67882973      11.06747324  T        1      -0.00896400       0.00022200      -0.00512700      -0.00896400       0.00022200      -0.00512700       0.00000000
P       11.04625445      11.94966558      13.09096792  T        1       0.02191100       0.01219300      -0.00567100       0.02191100       0.01219300      -0.00567100       0.00000000
K        3.63384032       7.56710339       9.26366425  F        0       0.00000000       0.00000000       0.00000000       0.02931200      -0.01630300      -0.24846500       0.00000000
K        5.49242496       0.83601475       7.40507984  F        0       0.00000000       0.00000000       0.00000000       0.00066700      -0.00163700      -0.07934300       0.00000000
Co       5.49242496       4.20155907       9.26366425  F        0       0.00000000       0.00000000       0.00000000      -0.00707500       0.09687000      -0.23099700       0.00000000
Co       3.63384032       4.20155907       7.40507984  F        0       0.00000000       0.00000000       0.00000000       0.00602900       0.69700700       1.05161100       0.00000000
Co       3.63384032      10.93264771       7.40507984  F        0       0.00000000       0.00000000       0.00000000       0.00469500      -0.75624100       1.09752800       0.00000000
Co       5.49242496      10.93264771       9.26366425  F        0       0.00000000       0.00000000       0.00000000       0.00271400       0.12405400      -0.26740600       0.00000000
P        3.63384032       2.98880100       9.26366425  F        0       0.00000000       0.00000000       0.00000000       0.12124900       0.15916300      -0.54604600       0.00000000
P        5.49242496       5.41431713       7.40507984  F        0       0.00000000       0.00000000       0.00000000      -0.00191600      -1.09633900      -0.26399000       0.00000000
P        5.49242496       9.71988964       7.40507984  F        0       0.00000000       0.00000000       0.00000000      -0.03835300       1.11417300      -0.31465300       0.00000000
P        3.63384032      12.14540577       9.26366425  F        0       0.00000000       0.00000000       0.00000000      -0.05033700      -0.43324600      -0.03376200       0.00000000
K        3.65382757       7.69449288      13.38841918  T        1       0.01061700       0.00858200       0.00140700       0.01061700       0.00858200       0.00140700       0.00000000
K        5.46653251       0.67870895      11.54308625  T        1       0.00480000       0.01028100      -0.01949700       0.00480000       0.01028100      -0.01949700       0.00000000
Co       5.48123062       4.12808804      13.01755601  T        1       0.01661600       0.02079100      -0.01191100       0.01661600       0.02079100      -0.01191100       0.00000000
Co       3.67344971       4.18223121      11.09401916  T        1      -0.01421300       0.00761600       0.02617900      -0.01421300       0.00761600       0.02617900       0.00000000
Co       3.61972497      10.86193970      11.10905295  T        1       0.00358300       0.00015600       0.01495900       0.00358300       0.00015600       0.01495900       0.00000000
Co       5.55757002      10.97505255      12.79917568  T        1       0.00168000      -0.00883300       0.00879300       0.00168000      -0.00883300       0.00879300       0.00000000
P        3.65014125       3.02799935      12.96980614  T        1      -0.00496900       0.01369000       0.01763700      -0.00496900       0.01369000       0.01763700       0.00000000
P        5.48862047       5.39152026      11.16856981  T        1      -0.00861100      -0.00767400      -0.02861100      -0.00861100      -0.00767400      -0.02861100       0.00000000
P        5.51274944       9.70816650      11.08189958  T        1       0.00422900       0.00779300       0.00863300       0.00422900       0.00779300       0.00863300       0.00000000
P        3.62482149      11.24397871      13.46838507  T        1       0.00658500      -0.02056900       0.01104600       0.00658500      -0.02056900       0.01104600       0.00000000
K        7.35100985       7.56710339       9.26366425  F        0       0.00000000       0.00000000       0.00000000      -0.02889700      -0.02258100      -0.23361800       0.00000000
K        9.20959473       0.83601475       7.40507984  F        0       0.00000000       0.00000000       0.00000000       0.00002700      -0.00843600      -0.08148800       0.00000000
Co       9.20959473       4.20155907       9.26366425  F        0       0.00000000       0.00000000       0.00000000      -0.12401700      -0.09586500      -0.22255600       0.00000000
Co       7.35100985       4.20155907       7.40507984  F        0       0.00000000       0.00000000       0.00000000      -0.00117600       0.69419800       1.04741700       0.00000000
Co       7.35100985      10.93264771       7.40507984  F        0       0.00000000       0.00000000       0.00000000      -0.00720000      -0.76572100       1.03248800       0.00000000
Co       9.20959473      10.93264771       9.26366425  F        0       0.00000000       0.00000000       0.00000000       0.03336300       0.03632200      -0.42469900       0.00000000
P        7.35100985       2.98880100       9.26366425  F        0       0.00000000       0.00000000       0.00000000      -0.11959200       0.18185300      -0.52513700       0.00000000
P        9.20959473       5.41431713       7.40507984  F        0       0.00000000       0.00000000       0.00000000       0.03154400      -1.06822400      -0.31491400       0.00000000
P        9.20959473       9.71988964       7.40507984  F        0       0.00000000       0.00000000       0.00000000      -0.00316900       1.15690800      -0.29709600       0.00000000
P        7.35100985      12.14540577       9.26366425  F        0       0.00000000       0.00000000       0.00000000       0.09017900      -0.25096200      -0.38528900       0.00000000
K        7.34270518       8.06026481      13.47751582  T        1       0.02137900       0.02322000       0.02281400       0.02137900       0.02322000       0.02281400       0.00000000
K        9.25453205       0.83625881      11.55053719  T        1       0.00530300       0.02018300      -0.00336800       0.00530300       0.02018300      -0.00336800       0.00000000
Co       9.13268384       4.13060644      12.79225920  T        1       0.00935500      -0.00570700       0.02589800       0.00935500      -0.00570700       0.02589800       0.00000000
Co       7.29996656       4.18456332      11.09905479  T        1       0.02945700      -0.00079200       0.00716000       0.02945700      -0.00079200       0.00716000       0.00000000
Co       7.38680151      10.91789116      11.08930598  T        1      -0.00230700       0.00795200      -0.03040100      -0.00230700       0.00795200      -0.03040100       0.00000000
Co       9.23361076      10.89657054      12.85271061  T        1       0.01048400      -0.00843800       0.01078300       0.01048400      -0.00843800       0.01078300       0.00000000
P        7.31900891       3.05016414      12.98254672  T        1      -0.00596200      -0.00990200       0.01711400      -0.00596200      -0.00990200       0.01711400       0.00000000
P        9.15428105       5.41884360      11.09713294  T        1       0.01894200       0.01740600       0.01651700       0.01894200       0.01740600       0.01651700       0.00000000
P        9.22256854       9.68609182      11.07793745  T        1      -0.00823300      -0.02218800       0.00427800      -0.00823300      -0.02218800       0.00427800       0.00000000
P        7.42133639      11.94601679      13.09613187  T        1      -0.04294300       0.00389100       0.01901000      -0.04294300       0.00389100       0.01901000       0.00000000
C        6.00851931       5.52405168      15.03235703  T        2      -0.00184700       0.01035100       0.01000100      -0.00184700       0.01035100       0.01000100       0.00000000
C        5.19701427       4.35237027      15.10199478  T        2      -0.00657300      -0.00473200      -0.00147700      -0.00657300      -0.00473200      -0.00147700       0.00000000
H        7.10985335       5.35560531      15.10603735  T        2       0.00955400      -0.01712400       0.00779600       0.00955400      -0.01712400       0.00779600       0.00000000
H        4.14161242       4.50583789      15.35196921  T        2      -0.01628400      -0.00418200       0.00162300      -0.01628400      -0.00418200       0.00162300       0.00000000
H        5.65403838       3.47096006      15.56408205  T        2       0.00744100      -0.00195200       0.01042700       0.00744100      -0.00195200       0.01042700       0.00000000
O        5.58680629       6.73340347      14.92271626  T        2       0.00748700       0.01659400      -0.01497700       0.00748700       0.01659400      -0.01497700       0.00000000
66
Lattice="11.151508331298828 0.0 -1.793299192411231e-15 2.1648832290092727e-15 13.462177276611328 -2.1648832290092727e-15 0.0 0.0 29.737356185913086" Properties=species:S:1:pos:R:3:move_mask:L:1:tags:I:1:DFT_forces:R:3:forces:R:3 DFT_energy=-338.5866175 energy=-338.5866175 pbc="T T T"
K       11.06817913       7.56710339       9.26366425  F        0       0.00000000       0.00000000       0.00000000       0.00000000       0.00000000       0.00000000
K        1.77525556       0.83601475       7.40507984  F        0       0.00000000       0.00000000       0.00000000       0.00000000       0.00000000       0.00000000
Co       1.77525556       4.20155907       9.26366425  F        0       0.00000000       0.00000000       0.00000000       0.00000000       0.00000000       0.00000000
Co      11.06817913       4.20155907       7.40507984  F        0       0.00000000       0.00000000       0.00000000       0.00000000       0.00000000       0.00000000
Co      11.06817913      10.93264771       7.40507984  F        0       0.00000000       0.00000000       0.00000000       0.00000000       0.00000000       0.00000000
Co       1.77525556      10.93264771       9.26366425  F        0       0.00000000       0.00000000       0.00000000       0.00000000       0.00000000       0.00000000
P       11.06817913       2.98880100       9.26366425  F        0       0.00000000       0.00000000       0.00000000       0.00000000       0.00000000       0.00000000
P        1.77525556       5.41431713       7.40507984  F        0       0.00000000       0.00000000       0.00000000       0.00000000       0.00000000       0.00000000
P        1.77525556       9.71988964       7.40507984  F        0       0.00000000       0.00000000       0.00000000       0.00000000       0.00000000       0.00000000
P       11.06817913      12.14540577       9.26366425  F        0       0.00000000       0.00000000       0.00000000       0.00000000       0.00000000       0.00000000
K       10.66201424       7.44699998      13.21661205  T        1       0.00577000       0.00865000      -0.00248600       0.00577000       0.00865000      -0.00248600
K        1.73394982       0.84081759      11.53587003  T        1      -0.00009600      -0.01179100      -0.01735000      -0.00009600      -0.01179100      -0.01735000
Co       1.77400992       4.17180844      12.87244397  T        1      -0.01093700      -0.01114300       0.00649600      -0.01093700      -0.01114300       0.00649600
Co      11.08753181       4.19210257      11.12168312  T        1       0.00050400       0.00069800      -0.00994600       0.00050400       0.00069800      -0.00994600
Co      11.09251815      10.91706580      11.08393487  T        1       0.00821200      -0.00561600       0.03685200       0.00821200      -0.00561600       0.03685200
Co       1.75610668      10.85512907      12.88117855  T        1      -0.01678600       0.00551400      -0.01633700      -0.01678600       0.00551400      -0.01633700
P       11.05946060       3.28815149      13.22303192  T        1      -0.00559600      -0.01058600      -0.00228300      -0.00559600      -0.01058600      -0.00228300
P        1.78971597       5.41627191      11.12822933  T        1       0.00396600       0.01042200      -0.01491600       0.00396600       0.01042200      -0.01491600
P        1.76211263       9.68161850      11.07562156  T        1       0.00172300       0.00312800      -0.00082600       0.00172300       0.00312800      -0.00082600
P       11.11609764      11.96364604      13.08058950  T        1       0.00126000       0.00069500      -0.00578700       0.00126000       0.00069500      -0.00578700
K        3.63384032       7.56710339       9.26366425  F        0       0.00000000       0.00000000       0.00000000       0.00000000       0.00000000       0.00000000
K        5.49242496       0.83601475       7.40507984  F        0       0.00000000       0.00000000       0.00000000       0.00000000       0.00000000       0.00000000
Co       5.49242496       4.20155907       9.26366425  F        0       0.00000000       0.00000000       0.00000000       0.00000000       0.00000000       0.00000000
Co       3.63384032       4.20155907       7.40507984  F        0       0.00000000       0.00000000       0.00000000       0.00000000       0.00000000       0.00000000
Co       3.63384032      10.93264771       7.40507984  F        0       0.00000000       0.00000000       0.00000000       0.00000000       0.00000000       0.00000000
Co       5.49242496      10.93264771       9.26366425  F        0       0.00000000       0.00000000       0.00000000       0.00000000       0.00000000       0.00000000
P        3.63384032       2.98880100       9.26366425  F        0       0.00000000       0.00000000       0.00000000       0.00000000       0.00000000       0.00000000
P        5.49242496       5.41431713       7.40507984  F        0       0.00000000       0.00000000       0.00000000       0.00000000       0.00000000       0.00000000
P        5.49242496       9.71988964       7.40507984  F        0       0.00000000       0.00000000       0.00000000       0.00000000       0.00000000       0.00000000
P        3.63384032      12.14540577       9.26366425  F        0       0.00000000       0.00000000       0.00000000       0.00000000       0.00000000       0.00000000
K        3.69348702       7.70253195      13.01292215  T        1       0.00765100      -0.00142400       0.01450700       0.00765100      -0.00142400       0.01450700
K        5.51598203       0.76675909      11.58075936  T        1       0.00169700       0.00034500      -0.00900200       0.00169700       0.00034500      -0.00900200
Co       5.49373751       4.49655622      13.04882451  T        1       0.00278300      -0.00688100       0.01140000       0.00278300      -0.00688100       0.01140000
Co       3.66353536       4.24747664      11.07051926  T        1      -0.00167100      -0.00612200       0.01112600      -0.00167100      -0.00612200       0.01112600
Co       3.59320092      10.92177031      11.09307883  T        1      -0.00734000      -0.01052600       0.00796000      -0.00734000      -0.01052600       0.00796000
Co       5.42218532      11.01496204      12.81360757  T        1      -0.00079200       0.00341100      -0.02389200      -0.00079200       0.00341100      -0.02389200
P        3.64218766       3.09538123      12.99214518  T        1       0.01738500      -0.00173500      -0.02493100       0.01738500      -0.00173500      -0.02493100
P        5.49444456       5.45960721      11.08093721  T        1      -0.00064800       0.02088400      -0.02405300      -0.00064800       0.02088400      -0.02405300
P        5.48114401       9.73850737      11.09998442  T        1       0.00392800       0.00013400      -0.00393300       0.00392800       0.00013400      -0.00393300
P        3.54951962      11.95149223      13.10561385  T        1      -0.01047400       0.02750800       0.00884200      -0.01047400       0.02750800       0.00884200
K        7.35100985       7.56710339       9.26366425  F        0       0.00000000       0.00000000       0.00000000       0.00000000       0.00000000       0.00000000
K        9.20959473       0.83601475       7.40507984  F        0       0.00000000       0.00000000       0.00000000       0.00000000       0.00000000       0.00000000
Co       9.20959473       4.20155907       9.26366425  F        0       0.00000000       0.00000000       0.00000000       0.00000000       0.00000000       0.00000000
Co       7.35100985       4.20155907       7.40507984  F        0       0.00000000       0.00000000       0.00000000       0.00000000       0.00000000       0.00000000
Co       7.35100985      10.93264771       7.40507984  F        0       0.00000000       0.00000000       0.00000000       0.00000000       0.00000000       0.00000000
Co       9.20959473      10.93264771       9.26366425  F        0       0.00000000       0.00000000       0.00000000       0.00000000       0.00000000       0.00000000
P        7.35100985       2.98880100       9.26366425  F        0       0.00000000       0.00000000       0.00000000       0.00000000       0.00000000       0.00000000
P        9.20959473       5.41431713       7.40507984  F        0       0.00000000       0.00000000       0.00000000       0.00000000       0.00000000       0.00000000
P        9.20959473       9.71988964       7.40507984  F        0       0.00000000       0.00000000       0.00000000       0.00000000       0.00000000       0.00000000
P        7.35100985      12.14540577       9.26366425  F        0       0.00000000       0.00000000       0.00000000       0.00000000       0.00000000       0.00000000
K        6.63203234       9.22687243      15.48239981  T        1       0.00098000       0.01416400       0.01469400       0.00098000       0.01416400       0.01469400
K        9.18133763       0.79614739      11.63466948  T        1      -0.00636300       0.00610900       0.00570600      -0.00636300       0.00610900       0.00570600
Co       9.18102739       4.08260197      12.80296522  T        1       0.00486500       0.00496200       0.01232500       0.00486500       0.00496200       0.01232500
Co       7.30101291       4.20481414      11.11363843  T        1       0.00088900       0.00027700      -0.00616600       0.00088900       0.00027700      -0.00616600
Co       7.36302842      10.90439395      11.12143070  T        1       0.00004500       0.00570000      -0.00027800       0.00004500       0.00570000      -0.00027800
Co       9.28873879      10.91630092      12.84783509  T        1       0.00480100       0.00812000      -0.00546700       0.00480100       0.00812000      -0.00546700
P        7.26836629       3.25067306      13.10610719  T        1       0.00276100       0.00174800      -0.00398800       0.00276100       0.00174800      -0.00398800
P        9.19083011       5.38102403      11.11602944  T        1      -0.00281500      -0.00014400      -0.00553700      -0.00281500      -0.00014400      -0.00553700
P        9.22903543       9.70992906      11.08643120  T        1      -0.00732500       0.00011500       0.00658400      -0.00732500       0.00011500       0.00658400
P        7.36492082      11.48275757      13.37501034  T        1       0.01767000       0.00770000       0.01067700       0.01767000       0.00770000       0.01067700
C        6.22772152       5.83447413      14.14225781  T        2       0.01947200      -0.00634800       0.02982600       0.01947200      -0.00634800       0.02982600
C        3.89233360       4.29543035      14.32335762  T        2       0.01593900      -0.00778400       0.00238500       0.01593900      -0.00778400       0.00238500
H        7.34917000       5.76449708      14.30022858  T        2      -0.03335100      -0.01000500       0.02766200      -0.03335100      -0.01000500       0.02766200
H        3.38059736       5.27376977      14.35558088  T        2      -0.02841400      -0.00672900       0.00790100      -0.02841400      -0.00672900       0.00790100
H        4.03293458       3.89822947      15.33839499  T        2       0.00277200      -0.02612900       0.01385100       0.00277200      -0.02612900       0.01385100
O        5.67022241       6.84137491      14.66801424  T        2       0.03001800      -0.01454900      -0.00040500       0.03001800      -0.01454900      -0.00040500
66
Lattice="11.151508331298828 0.0 -1.793299192411231e-15 2.1648832290092727e-15 13.462177276611328 -2.1648832290092727e-15 0.0 0.0 29.737356185913086" Properties=species:S:1:pos:R:3:move_mask:L:1:tags:I:1:DFT_forces:R:3:forces:R:3 DFT_energy=-338.49740529 energy=-338.49740529 pbc="T T T"
K       11.06817913       7.56710339       9.26366425  F        0       0.00000000       0.00000000       0.00000000       0.00000000       0.00000000       0.00000000
K        1.77525556       0.83601475       7.40507984  F        0       0.00000000       0.00000000       0.00000000       0.00000000       0.00000000       0.00000000
Co       1.77525556       4.20155907       9.26366425  F        0       0.00000000       0.00000000       0.00000000       0.00000000       0.00000000       0.00000000
Co      11.06817913       4.20155907       7.40507984  F        0       0.00000000       0.00000000       0.00000000       0.00000000       0.00000000       0.00000000
Co      11.06817913      10.93264771       7.40507984  F        0       0.00000000       0.00000000       0.00000000       0.00000000       0.00000000       0.00000000
Co       1.77525556      10.93264771       9.26366425  F        0       0.00000000       0.00000000       0.00000000       0.00000000       0.00000000       0.00000000
P       11.06817913       2.98880100       9.26366425  F        0       0.00000000       0.00000000       0.00000000       0.00000000       0.00000000       0.00000000
P        1.77525556       5.41431713       7.40507984  F        0       0.00000000       0.00000000       0.00000000       0.00000000       0.00000000       0.00000000
P        1.77525556       9.71988964       7.40507984  F        0       0.00000000       0.00000000       0.00000000       0.00000000       0.00000000       0.00000000
P       11.06817913      12.14540577       9.26366425  F        0       0.00000000       0.00000000       0.00000000       0.00000000       0.00000000       0.00000000
K       10.61822532       7.41587394      13.24397590  T        1       0.00533400       0.00628300      -0.00414800       0.00533400       0.00628300      -0.00414800
K        1.71432785       0.84241123      11.49756186  T        1       0.01238900       0.00317600       0.00494800       0.01238900       0.00317600       0.00494800
Co       1.85162313       4.17691440      12.88407753  T        1      -0.02908600      -0.02863400      -0.02709900      -0.02908600      -0.02863400      -0.02709900
Co      11.10288368       4.20874813      11.13344686  T        1      -0.00367600      -0.00164500       0.00035200      -0.00367600      -0.00164500       0.00035200
Co      11.09114244      10.92207815      11.08736238  T        1       0.00285000       0.00064100       0.00295900       0.00285000       0.00064100       0.00295900
Co       1.75584451      10.86971559      12.88030781  T        1      -0.00128900      -0.00266600       0.00115900      -0.00128900      -0.00266600       0.00115900
P       11.06917196       3.54987820      13.34800989  T        1      -0.01521900      -0.03870200       0.00083500      -0.01521900      -0.03870200       0.00083500
P        1.80361620       5.41217767      11.12676370  T        1      -0.00390100      -0.00202600      -0.00375300      -0.00390100      -0.00202600      -0.00375300
P        1.76040563       9.68528974      11.08144119  T        1       0.00580000      -0.00362000       0.00883300       0.00580000      -0.00362000       0.00883300
P       11.11618217      11.98062114      13.07670999  T        1      -0.00441500       0.00147200      -0.00230800      -0.00441500       0.00147200      -0.00230800
K        3.63384032       7.56710339       9.26366425  F        0       0.00000000       0.00000000       0.00000000       0.00000000       0.00000000       0.00000000
K        5.49242496       0.83601475       7.40507984  F        0       0.00000000       0.00000000       0.00000000       0.00000000       0.00000000       0.00000000
Co       5.49242496       4.20155907       9.26366425  F        0       0.00000000       0.00000000       0.00000000       0.00000000       0.00000000       0.00000000
Co       3.63384032       4.20155907       7.40507984  F        0       0.00000000       0.00000000       0.00000000       0.00000000       0.00000000       0.00000000
Co       3.63384032      10.93264771       7.40507984  F        0       0.00000000       0.00000000       0.00000000       0.00000000       0.00000000       0.00000000
Co       5.49242496      10.93264771       9.26366425  F        0       0.00000000       0.00000000       0.00000000       0.00000000       0.00000000       0.00000000
P        3.63384032       2.98880100       9.26366425  F        0       0.00000000       0.00000000       0.00000000       0.00000000       0.00000000       0.00000000
P        5.49242496       5.41431713       7.40507984  F        0       0.00000000       0.00000000       0.00000000       0.00000000       0.00000000       0.00000000
P        5.49242496       9.71988964       7.40507984  F        0       0.00000000       0.00000000       0.00000000       0.00000000       0.00000000       0.00000000
P        3.63384032      12.14540577       9.26366425  F        0       0.00000000       0.00000000       0.00000000       0.00000000       0.00000000       0.00000000
K        3.63763920       7.64973453      13.12333435  T        1       0.02254100       0.01134200      -0.01983200       0.02254100       0.01134200      -0.01983200
K        5.56264052       0.72960186      11.51929754  T        1      -0.01509200       0.01047800       0.00872200      -0.01509200       0.01047800       0.00872200
Co       5.43930051       4.55049638      13.01197258  T        1       0.01277500      -0.01372100       0.00582500       0.01277500      -0.01372100       0.00582500
Co       3.67235230       4.25131540      11.05265912  T        1      -0.00558400      -0.00866100      -0.00253900      -0.00558400      -0.00866100      -0.00253900