56
Lattice="8.896669387817383 8.387188556558564e-17 0.6848658919334412 3.2621119022369385 23.95703887939453 -0.8560823798179626 -0.0 4.067786367212842e-15 33.21599578857422" Properties=species:S:1:pos:R:3:move_mask:L:1:tags:I:1:DFT_forces:R:3:forces:R:3:magmoms:R:1 DFT_energy=-324.64174704 energy=-324.64174704 dipole="_JSON [[0.0, 0.0, 0.0]]" magmom=0.0 free_energy=-324.66864389 pbc="T T T"
Mo       3.93823460      19.13474948      13.57644743  T        1       0.01337600       0.01939400      -0.01113100       0.01337600       0.01939400      -0.01113100       0.00000000
Mo       6.65719362      19.17914450      12.90053435  T        1      -0.02038400       0.01591700       0.01830500      -0.02038400       0.01591700       0.01830500       0.00000000
Mo      10.22737029      19.18240210      12.27760771  T        1       0.00414800       0.00733300      -0.02522600       0.00414800       0.00733300      -0.02522600       0.00000000
Mo      10.38030861      11.97937525      14.22502846  T        1       0.00776400      -0.00539600       0.02916400       0.00776400      -0.00539600       0.02916400       0.00000000
Mo       5.03412640      11.96658421      12.63812757  F        0       0.00000000       0.00000000       0.00000000       0.36286800       0.03009400       0.41227500       0.00000000
Mo       7.15467077      11.95238817      15.11298850  T        1       0.03475400      -0.00018800       0.01552700       0.03475400      -0.00018800       0.01552700       0.00000000
Mo       4.53986657      19.17742920      10.75474668  F        0       0.00000000       0.00000000       0.00000000       0.07712200      -0.00258100      -1.93145200       0.00000000
Mo       7.80197895      19.17742920       9.89866465  F        0       0.00000000       0.00000000       0.00000000       0.16417100       0.01131400      -0.04393500       0.00000000
Mo      11.06409085      19.17742920       9.04258174  F        0       0.00000000       0.00000000       0.00000000       0.02040000      -0.05540100      -0.27068100       0.00000000
Mo       2.66168082      11.96658421      10.24109769  F        0       0.00000000       0.00000000       0.00000000       0.04850400      -0.01635600       0.16625100       0.00000000
Mo       5.92379296      11.96658421       9.38501477  F        0       0.00000000       0.00000000       0.00000000       0.11038100      -0.03490300      -0.11701200       0.00000000
Mo       8.29623830      11.96658421      11.78204650  F        0       0.00000000       0.00000000       0.00000000      -0.26918400      -0.11246800       0.55789900       0.00000000
Mo       5.42953312      19.17742920       7.50163388  F        0       0.00000000       0.00000000       0.00000000       0.16120200       0.00427300      -0.08426100       0.00000000
Mo       8.69164574      19.17742920       6.64555186  F        0       0.00000000       0.00000000       0.00000000      -0.75145400       0.05303700       1.65612800       0.00000000
Mo       3.05708849      19.17742920       5.10460305  F        0       0.00000000       0.00000000       0.00000000      -0.53679400       0.02994300       4.32595800       0.00000000
Mo       3.55134785      11.96658421       6.98798394  F        0       0.00000000       0.00000000       0.00000000       0.34260800       0.00544400       0.76671800       0.00000000
Mo       6.81346011      11.96658421       6.13190192  F        0       0.00000000       0.00000000       0.00000000      -0.07846600       0.05850100       1.46327600       0.00000000
Mo       9.18590510      11.96658421       8.52893275  F        0       0.00000000       0.00000000       0.00000000       0.22800500       0.00453200       0.49821600       0.00000000
S       10.89608060      20.60971161      14.06208345  T        1      -0.00567500       0.01912600       0.00367000      -0.00567500       0.01912600       0.00367000       0.00000000
S        5.04811394      20.85883303      12.33283743  T        1      -0.00683800      -0.01293000       0.00260300      -0.00683800      -0.01293000       0.00260300       0.00000000
S        5.75292323      20.17875664      15.06262032  T        1      -0.00734800       0.00655000      -0.01517100      -0.00734800       0.00655000      -0.01517100       0.00000000
S       10.99819014      17.60401148      14.04290557  T        1       0.00229700      -0.00402600      -0.00433100       0.00229700      -0.00402600      -0.00433100       0.00000000
S        5.08237256      17.49057395      12.30551700  T        1       0.00415900      -0.00035500       0.00198600       0.00415900      -0.00035500       0.00198600       0.00000000
S        5.76780322      18.13551756      15.04031572  T        1      -0.01248700       0.01095400       0.00810100      -0.01248700       0.01095400       0.00810100       0.00000000
S       11.55835021      20.69613171      10.92596358  F        0       0.00000000       0.00000000       0.00000000      -0.23191500      -0.19106200      -0.40157600       0.00000000
S        5.92379296      20.69613171       9.38501477  F        0       0.00000000       0.00000000       0.00000000       0.13922700      -0.24373000      -0.30036600       0.00000000
S        8.29623830      20.69613171      11.78204650  F        0       0.00000000       0.00000000       0.00000000      -0.00347300      -0.19408700       0.16223500       0.00000000
S        2.66168082      17.65867996      10.24109769  F        0       0.00000000       0.00000000       0.00000000      -0.24848900       0.21716200      -0.30012700       0.00000000
S        5.92379296      17.65867996       9.38501477  F        0       0.00000000       0.00000000       0.00000000       0.13398000       0.34004100      -0.32847500       0.00000000
S        8.29623830      17.65867996      11.78204650  F        0       0.00000000       0.00000000       0.00000000       0.02596900       0.30558900       0.17675100       0.00000000
S        3.55134785      20.69613171       6.98798394  F        0       0.00000000       0.00000000       0.00000000      -0.26584600      -0.53095400      -1.30685000       0.00000000
S        6.81345952      20.69613171       6.13190198  F        0       0.00000000       0.00000000       0.00000000       0.83071300      -0.69287200       0.54327900       0.00000000
S        9.18590510      20.69613171       8.52893275  F        0       0.00000000       0.00000000       0.00000000      -0.00769700      -0.31071500      -0.49822700       0.00000000
S        3.55134785      17.65867996       6.98798394  F        0       0.00000000       0.00000000       0.00000000      -0.27053500       0.57680900      -1.31710000       0.00000000
S        6.81345952      17.65867996       6.13190198  F        0       0.00000000       0.00000000       0.00000000       0.78089200       0.64397600       0.49578600       0.00000000
S        9.18590510      17.65867996       8.52893275  F        0       0.00000000       0.00000000       0.00000000       0.01374400       0.37311200      -0.53115400       0.00000000
Te       3.60713862      10.67762985      14.66441237  T        1      -0.00112900       0.00090000      -0.02337500      -0.00112900       0.00090000      -0.02337500       0.00000000
Te       6.85661968      10.03237783      13.23014597  T        1       0.00520400      -0.01415700       0.02334300       0.00520400      -0.01415700       0.02334300       0.00000000
Te       9.08308846      10.19705545      15.85629801  T        1       0.00823500      -0.00457700      -0.01241900       0.00823500      -0.00457700      -0.01241900       0.00000000
Te       3.58047067      13.40881939      14.56287452  T        1       0.01513500      -0.02344000       0.00569400       0.01513500      -0.02344000       0.00569400       0.00000000
Te       6.86474997      13.87796310      13.23650602  T        1       0.01294000       0.02252200       0.02285300       0.01294000       0.02252200       0.02285300       0.00000000
Te       9.06356735      13.72263516      15.85687405  T        1       0.00245500      -0.02667900      -0.01739500       0.00245500      -0.02667900      -0.01739500       0.00000000
Te       4.53986657      10.06948376      10.75474668  F        0       0.00000000       0.00000000       0.00000000      -0.08532800       0.01856200       0.34548400       0.00000000
Te       7.80197895      10.06948376       9.89866465  F        0       0.00000000       0.00000000       0.00000000      -0.06003400      -0.03082000      -0.00710300       0.00000000
Te      10.17442381      10.06948376      12.29569548  F        0       0.00000000       0.00000000       0.00000000      -0.04317000      -0.11636800       0.66589400       0.00000000
Te       4.53986657      13.86539745      10.75474668  F        0       0.00000000       0.00000000       0.00000000      -0.08001800      -0.09971900       0.34047300       0.00000000
Te       7.80197895      13.86539745       9.89866465  F        0       0.00000000       0.00000000       0.00000000      -0.04709400      -0.00623700       0.01952600       0.00000000
Te      10.17442381      13.86539745      12.29569548  F        0       0.00000000       0.00000000       0.00000000      -0.11126900       0.18819800       0.54486400       0.00000000
Te       5.42953312      10.06948376       7.50163388  F        0       0.00000000       0.00000000       0.00000000      -0.17991000       0.09547600      -1.07527400       0.00000000
Te       8.69164574      10.06948376       6.64555186  F        0       0.00000000       0.00000000       0.00000000      -0.16314300       0.31917400      -1.25989800       0.00000000
Te       2.16742146      10.06948376       8.35771585  F        0       0.00000000       0.00000000       0.00000000       0.13241200       0.23759400      -0.54554200       0.00000000
Te       5.42953312      13.86539745       7.50163388  F        0       0.00000000       0.00000000       0.00000000      -0.16629000      -0.15120500      -1.07574300       0.00000000
Te       8.69164574      13.86539745       6.64555186  F        0       0.00000000       0.00000000       0.00000000      -0.20288400      -0.45381800      -1.21365000       0.00000000
Te       2.16742146      13.86539745       8.35771585  F        0       0.00000000       0.00000000       0.00000000       0.15092500      -0.27352000      -0.55695700       0.00000000
N        6.09927777      11.97135147      16.52628598  T        2       0.00452000      -0.00048300      -0.00556500       0.00452000      -0.00048300      -0.00556500       0.00000000
H        5.64927194      11.99689610      17.44981351  T        2       0.01874000      -0.00648000       0.00773800       0.01874000      -0.00648000       0.00773800       0.00000000
56
Lattice="8.896669387817383 8.387188556558564e-17 0.6848658919334412 3.2621119022369385 23.95703887939453 -0.8560823798179626 -0.0 4.067786367212842e-15 33.21599578857422" Properties=species:S:1:pos:R:3:move_mask:L:1:tags:I:1:DFT_forces:R:3:forces:R:3 DFT_energy=-324.55747535 energy=-324.55747535 pbc="T T T"
Mo       3.93164325      19.15504375      13.57158974  T        1       0.00339900      -0.00262500       0.00271900       0.00339900      -0.00262500       0.00271900
Mo       6.65257352      19.18770464      12.90266833  T        1       0.00002600       0.00046200       0.00153000       0.00002600       0.00046200       0.00153000
Mo      10.22611305      19.18404178      12.27471064  T        1       0.00484700       0.00484500      -0.00053200       0.00484700       0.00484500      -0.00053200
Mo      10.43748007      11.96790418      14.22804292  T        1      -0.00693100       0.00619400       0.00898200      -0.00693100       0.00619400       0.00898200
Mo       5.03412640      11.96658421      12.63812757  F        0       0.00000000       0.00000000       0.00000000       0.00000000       0.00000000       0.00000000
Mo       7.25195417      11.98660783      15.09068114  T        1      -0.01735700       0.02098600       0.04644600      -0.01735700       0.02098600       0.04644600
Mo       4.53986657      19.17742920      10.75474668  F        0       0.00000000       0.00000000       0.00000000       0.00000000       0.00000000       0.00000000
Mo       7.80197895      19.17742920       9.89866465  F        0       0.00000000       0.00000000       0.00000000       0.00000000       0.00000000       0.00000000
Mo      11.06409085      19.17742920       9.04258174  F        0       0.00000000       0.00000000       0.00000000       0.00000000       0.00000000       0.00000000
Mo       2.66168082      11.96658421      10.24109769  F        0       0.00000000       0.00000000       0.00000000       0.00000000       0.00000000       0.00000000
Mo       5.92379296      11.96658421       9.38501477  F        0       0.00000000       0.00000000       0.00000000       0.00000000       0.00000000       0.00000000
Mo       8.29623830      11.96658421      11.78204650  F        0       0.00000000       0.00000000       0.00000000       0.00000000       0.00000000       0.00000000
Mo       5.42953312      19.17742920       7.50163388  F        0       0.00000000       0.00000000       0.00000000       0.00000000       0.00000000       0.00000000
Mo       8.69164574      19.17742920       6.64555186  F        0       0.00000000       0.00000000       0.00000000       0.00000000       0.00000000       0.00000000
Mo       3.05708849      19.17742920       5.10460305  F        0       0.00000000       0.00000000       0.00000000       0.00000000       0.00000000       0.00000000
Mo       3.55134785      11.96658421       6.98798394  F        0       0.00000000       0.00000000       0.00000000       0.00000000       0.00000000       0.00000000
Mo       6.81346011      11.96658421       6.13190192  F        0       0.00000000       0.00000000       0.00000000       0.00000000       0.00000000       0.00000000
Mo       9.18590510      11.96658421       8.52893275  F        0       0.00000000       0.00000000       0.00000000       0.00000000       0.00000000       0.00000000
S       10.89637409      20.63245993      14.05060508  T        1      -0.00275100      -0.00300500      -0.00240900      -0.00275100      -0.00300500      -0.00240900
S        5.04870363      20.86685656      12.32175456  T        1      -0.00032600       0.00271200      -0.00069200      -0.00032600       0.00271200      -0.00069200
S        5.74267214      20.20752519      15.05148467  T        1      -0.00073700       0.00039900       0.00108700      -0.00073700       0.00039900       0.00108700
S       10.98968478      17.62146381      14.04386657  T        1       0.00008900       0.00273000       0.00098400       0.00008900       0.00273000       0.00098400
S        5.07826227      17.49734146      12.31443111  T        1      -0.00206400      -0.00137000      -0.00093200      -0.00206400      -0.00137000      -0.00093200
S        5.75153984      18.16442815      15.05052550  T        1      -0.00050200      -0.00114900       0.00103300      -0.00050200      -0.00114900       0.00103300
S       11.55835021      20.69613171      10.92596358  F        0       0.00000000       0.00000000       0.00000000       0.00000000       0.00000000       0.00000000
S        5.92379296      20.69613171       9.38501477  F        0       0.00000000       0.00000000       0.00000000       0.00000000       0.00000000       0.00000000
S        8.29623830      20.69613171      11.78204650  F        0       0.00000000       0.00000000       0.00000000       0.00000000       0.00000000       0.00000000
S        2.66168082      17.65867996      10.24109769  F        0       0.00000000       0.00000000       0.00000000       0.00000000       0.00000000       0.00000000
S        5.92379296      17.65867996       9.38501477  F        0       0.00000000       0.00000000       0.00000000       0.00000000       0.00000000       0.00000000
S        8.29623830      17.65867996      11.78204650  F        0       0.00000000       0.00000000       0.00000000       0.00000000       0.00000000       0.00000000
S        3.55134785      20.69613171       6.98798394  F        0       0.00000000       0.00000000       0.00000000       0.00000000       0.00000000       0.00000000
S        6.81345952      20.69613171       6.13190198  F        0       0.00000000       0.00000000       0.00000000       0.00000000       0.00000000       0.00000000
S        9.18590510      20.69613171       8.52893275  F        0       0.00000000       0.00000000       0.00000000       0.00000000       0.00000000       0.00000000
S        3.55134785      17.65867996       6.98798394  F        0       0.00000000       0.00000000       0.00000000       0.00000000       0.00000000       0.00000000
S        6.81345952      17.65867996       6.13190198  F        0       0.00000000       0.00000000       0.00000000       0.00000000       0.00000000       0.00000000
S        9.18590510      17.65867996       8.52893275  F        0       0.00000000       0.00000000       0.00000000       0.00000000       0.00000000       0.00000000
Te       3.66054528      10.64898502      14.67879106  T        1      -0.00575400       0.00779100      -0.00622500      -0.00575400       0.00779100      -0.00622500
Te       6.86094009      10.03314360      13.23537284  T        1       0.00735400      -0.00228000       0.01764000       0.00735400      -0.00228000       0.01764000
Te       9.14224749      10.20680916      15.86584380  T        1       0.00328700       0.02307100       0.01445500       0.00328700       0.02307100       0.01445500
Te       3.63695347      13.37453409      14.60085831  T        1      -0.00123600       0.00443000      -0.00140700      -0.00123600       0.00443000      -0.00140700
Te       6.87322101      13.88825504      13.22580585  T        1       0.00049200       0.01347400      -0.00949700       0.00049200       0.01347400      -0.00949700
Te       9.15175670      13.76587433      15.81758345  T        1      -0.00900700       0.01152000      -0.00364100      -0.00900700       0.01152000      -0.00364100
Te       4.53986657      10.06948376      10.75474668  F        0       0.00000000       0.00000000       0.00000000       0.00000000       0.00000000       0.00000000
Te       7.80197895      10.06948376       9.89866465  F        0       0.00000000       0.00000000       0.00000000       0.00000000       0.00000000       0.00000000
Te      10.17442381      10.06948376      12.29569548  F        0       0.00000000       0.00000000       0.00000000       0.00000000       0.00000000       0.00000000
Te       4.53986657      13.86539745      10.75474668  F        0       0.00000000       0.00000000       0.00000000       0.00000000       0.00000000       0.00000000
Te       7.80197895      13.86539745       9.89866465  F        0       0.00000000       0.00000000       0.00000000       0.00000000       0.00000000       0.00000000
Te      10.17442381      13.86539745      12.29569548  F        0       0.00000000       0.00000000       0.00000000       0.00000000       0.00000000       0.00000000
Te       5.42953312      10.06948376       7.50163388  F        0       0.00000000       0.00000000       0.00000000       0.00000000       0.00000000       0.00000000
Te       8.69164574      10.06948376       6.64555186  F        0       0.00000000       0.00000000       0.00000000       0.00000000       0.00000000       0.00000000
Te       2.16742146      10.06948376       8.35771585  F        0       0.00000000       0.00000000       0.00000000       0.00000000       0.00000000       0.00000000
Te       5.42953312      13.86539745       7.50163388  F        0       0.00000000       0.00000000       0.00000000       0.00000000       0.00000000       0.00000000
Te       8.69164574      13.86539745       6.64555186  F        0       0.00000000       0.00000000       0.00000000       0.00000000       0.00000000       0.00000000
Te       2.16742146      13.86539745       8.35771585  F        0       0.00000000       0.00000000       0.00000000       0.00000000       0.00000000       0.00000000
N        6.34879788      12.16995174      16.60246081  T        2      -0.01147500       0.00139600       0.02273300      -0.01147500       0.00139600       0.02273300
H        6.30998558      12.44716720      17.59089977  T        2      -0.22781700      -0.08916200       0.08957800      -0.22781700      -0.08916200       0.08957800
56
Lattice="8.896669387817383 8.387188556558564e-17 0.6848658919334412 3.2621119022369385 23.95703887939453 -0.8560823798179626 -0.0 4.067786367212842e-15 33.21599578857422" Properties=species:S:1:pos:R:3:move_mask:L:1:tags:I:1:DFT_forces:R:3:forces:R:3 DFT_energy=-324.20238362 energy=-324.20238362 pbc="T T T"
Mo       3.93274751      19.15304730      13.57184754  T        1      -0.00000600       0.00105500       0.00156700      -0.00000600       0.00105500       0.00156700
Mo       6.65283112      19.18743740      12.90266362  T        1      -0.00085300       0.00045600       0.00073700      -0.00085300       0.00045600       0.00073700
Mo      10.22649830      19.18451905      12.27405824  T        1       0.00001100       0.00037100       0.00183300       0.00001100       0.00037100       0.00183300
Mo      10.44201339      11.95810664      14.22167697  T        1       0.01234000      -0.00935200       0.00401800       0.01234000      -0.00935200       0.00401800
Mo       5.03412640      11.96658421      12.63812757  F        0       0.00000000       0.00000000       0.00000000       0.00000000       0.00000000       0.00000000
Mo       7.26105595      11.94855772      15.02556240  T        1       0.03008900       0.01433100      -0.04729900       0.03008900       0.01433100      -0.04729900
Mo       4.53986657      19.17742920      10.75474668  F        0       0.00000000       0.00000000       0.00000000       0.00000000       0.00000000       0.00000000
Mo       7.80197895      19.17742920       9.89866465  F        0       0.00000000       0.00000000       0.00000000       0.00000000       0.00000000       0.00000000
Mo      11.06409085      19.17742920       9.04258174  F        0       0.00000000       0.00000000       0.00000000       0.00000000       0.00000000       0.00000000
Mo       2.66168082      11.96658421      10.24109769  F        0       0.00000000       0.00000000       0.00000000       0.00000000       0.00000000       0.00000000
Mo       5.92379296      11.96658421       9.38501477  F        0       0.00000000       0.00000000       0.00000000       0.00000000       0.00000000       0.00000000
Mo       8.29623830      11.96658421      11.78204650  F        0       0.00000000       0.00000000       0.00000000       0.00000000       0.00000000       0.00000000
Mo       5.42953312      19.17742920       7.50163388  F        0       0.00000000       0.00000000       0.00000000       0.00000000       0.00000000       0.00000000
Mo       8.69164574      19.17742920       6.64555186  F        0       0.00000000       0.00000000       0.00000000       0.00000000       0.00000000       0.00000000
Mo       3.05708849      19.17742920       5.10460305  F        0       0.00000000       0.00000000       0.00000000       0.00000000       0.00000000       0.00000000
Mo       3.55134785      11.96658421       6.98798394  F        0       0.00000000       0.00000000       0.00000000       0.00000000       0.00000000       0.00000000
Mo       6.81346011      11.96658421       6.13190192  F        0       0.00000000       0.00000000       0.00000000       0.00000000       0.00000000       0.00000000
Mo       9.18590510      11.96658421       8.52893275  F        0       0.00000000       0.00000000       0.00000000       0.00000000       0.00000000       0.00000000
S       10.89534768      20.62928822      14.05183391  T        1      -0.00160700       0.00108800      -0.00133100      -0.00160700       0.00108800      -0.00133100
S        5.04823403      20.86643314      12.32277282  T        1      -0.00031200       0.00126700      -0.00148900      -0.00031200       0.00126700      -0.00148900
S        5.74311772      20.20590818      15.05214297  T        1      -0.00015500       0.00207900       0.00008100      -0.00015500       0.00207900       0.00008100
S       10.99125594      17.62016780      14.04219412  T        1      -0.00108000       0.00235200       0.00274300      -0.00108000       0.00235200       0.00274300
S        5.07898601      17.49671830      12.31369602  T        1      -0.00118500      -0.00027500      -0.00015000      -0.00118500      -0.00027500      -0.00015000
S        5.75287232      18.16294462      15.04976062  T        1      -0.00142000      -0.00008500       0.00103100      -0.00142000      -0.00008500       0.00103100
S       11.55835021      20.69613171      10.92596358  F        0       0.00000000       0.00000000       0.00000000       0.00000000       0.00000000       0.00000000
S        5.92379296      20.69613171       9.38501477  F        0       0.00000000       0.00000000       0.00000000       0.00000000       0.00000000       0.00000000
S        8.29623830      20.69613171      11.78204650  F        0       0.00000000       0.00000000       0.00000000       0.00000000       0.00000000       0.00000000
S        2.66168082      17.65867996      10.24109769  F        0       0.00000000       0.00000000       0.00000000       0.00000000       0.00000000       0.00000000
S        5.92379296      17.65867996       9.38501477  F        0       0.00000000       0.00000000       0.00000000       0.00000000       0.00000000       0.00000000
S        8.29623830      17.65867996      11.78204650  F        0       0.00000000       0.00000000       0.00000000       0.00000000       0.00000000       0.00000000
S        3.55134785      20.69613171       6.98798394  F        0       0.00000000       0.00000000       0.00000000       0.00000000       0.00000000       0.00000000
S        6.81345952      20.69613171       6.13190198  F        0       0.00000000       0.00000000       0.00000000       0.00000000       0.00000000       0.00000000
S        9.18590510      20.69613171       8.52893275  F        0       0.00000000       0.00000000       0.00000000       0.00000000       0.00000000       0.00000000
S        3.55134785      17.65867996       6.98798394  F        0       0.00000000       0.00000000       0.00000000       0.00000000       0.00000000       0.00000000
S        6.81345952      17.65867996       6.13190198  F        0       0.00000000       0.00000000       0.00000000       0.00000000       0.00000000       0.00000000
S        9.18590510      17.65867996       8.52893275  F        0       0.00000000       0.00000000       0.00000000       0.00000000       0.00000000       0.00000000
Te       3.66502288      10.64298813      14.68076156  T        1       0.02736000       0.01525800       0.00746800       0.02736000       0.01525800       0.00746800
Te       6.84931970      10.00640372      13.20096000  T        1       0.00719500      -0.02672700      -0.04126700       0.00719500      -0.02672700      -0.04126700
Te       9.14526124      10.20439615      15.86558366  T        1       0.02969100       0.07720900       0.03466900       0.02969100       0.07720900       0.03466900
Te       3.63746355      13.36675287      14.60824618  T        1       0.01611100      -0.00095400      -0.00363000       0.01611100      -0.00095400      -0.00363000
Te       6.87268434      13.89149678      13.22260801  T        1       0.02928600       0.01551500      -0.01863200       0.02928600       0.01551500      -0.01863200
Te       9.14785085      13.80056682      15.75565700  T        1      -0.00547800      -0.03325700      -0.05902400      -0.00547800      -0.03325700      -0.05902400
Te       4.53986657      10.06948376      10.75474668  F        0       0.00000000       0.00000000       0.00000000       0.00000000       0.00000000       0.00000000
Te       7.80197895      10.06948376       9.89866465  F        0       0.00000000       0.00000000       0.00000000       0.00000000       0.00000000       0.00000000
Te      10.17442381      10.06948376      12.29569548  F        0       0.00000000       0.00000000       0.00000000       0.00000000       0.00000000       0.00000000
Te       4.53986657      13.86539745      10.75474668  F        0       0.00000000       0.00000000       0.00000000       0.00000000       0.00000000       0.00000000
Te       7.80197895      13.86539745       9.89866465  F        0       0.00000000       0.00000000       0.00000000       0.00000000       0.00000000       0.00000000
Te      10.17442381      13.86539745      12.29569548  F        0       0.00000000       0.00000000       0.00000000       0.00000000       0.00000000       0.00000000
Te       5.42953312      10.06948376       7.50163388  F        0       0.00000000       0.00000000       0.00000000       0.00000000       0.00000000       0.00000000
Te       8.69164574      10.06948376       6.64555186  F        0       0.00000000       0.00000000       0.00000000       0.00000000       0.00000000       0.00000000
Te       2.16742146      10.06948376       8.35771585  F        0       0.00000000       0.00000000       0.00000000       0.00000000       0.00000000       0.00000000
Te       5.42953312      13.86539745       7.50163388  F        0       0.00000000       0.00000000       0.00000000       0.00000000       0.00000000       0.00000000
Te       8.69164574      13.86539745       6.64555186  F        0       0.00000000       0.00000000       0.00000000       0.00000000       0.00000000       0.00000000
Te       2.16742146      13.86539745       8.35771585  F        0       0.00000000       0.00000000       0.00000000       0.00000000       0.00000000       0.00000000