59
Lattice="8.046059608459473 0.0 -1.293905083852567e-15 1.7869544921198226e-15 11.112053871154785 -1.7869544921198226e-15 0.0 0.0 29.50221824645996" Properties=species:S:1:pos:R:3:move_mask:L:1:tags:I:1:DFT_forces:R:3:forces:R:3:magmoms:R:1 DFT_energy=-327.60623148 energy=-327.60623148 dipole="_JSON [[0.0, 0.0, 0.0]]" magmom=0.0 free_energy=-327.67185504 pbc="T T T"
Co       2.18027842       5.51771075       7.92555046  F        0       0.00000000       0.00000000       0.00000000      -0.01455400       0.00071900      -0.22462400       0.00000000
Pt       3.52128828       7.36971981       6.58454037  F        0       0.00000000       0.00000000       0.00000000      -0.01220700       0.00860000       0.22913800       0.00000000
Co       2.18027842       5.51771075      10.60756969  F        0       0.00000000       0.00000000       0.00000000      -0.01053200       0.00310700       0.24733600       0.00000000
Pt       3.52128828       7.36971981       9.26655960  F        0       0.00000000       0.00000000       0.00000000       0.02133100      -0.10330300      -0.14973600       0.00000000
Co       2.21526437       5.52144739      13.14973800  T        1      -0.01094300      -0.00071200       0.00734500      -0.01094300      -0.00071200       0.00734500       0.00000000
Pt       3.52301672       7.36738238      11.98719410  T        1      -0.00379300       0.00083600      -0.00617100      -0.00379300       0.00083600      -0.00617100       0.00000000
Co       2.18027842       9.22172887       7.92555046  F        0       0.00000000       0.00000000       0.00000000      -0.01093500       0.02424900      -0.08276800       0.00000000
Pt       3.52128828      11.07373768       6.58454037  F        0       0.00000000       0.00000000       0.00000000       0.00268000       0.00345300       0.11904300       0.00000000
Co       2.18027842       9.22172887      10.60756969  F        0       0.00000000       0.00000000       0.00000000      -0.03867100      -0.01067200      -0.15755300       0.00000000
Pt       3.52128828      11.07373768       9.26655960  F        0       0.00000000       0.00000000       0.00000000       0.00000400      -0.00103600       0.13737400       0.00000000
Co       2.16647193       9.20994447      13.03354037  T        1      -0.00406600      -0.00022100      -0.00443000      -0.00406600      -0.00022100      -0.00443000       0.00000000
Pt       3.52033827      11.07431105      12.04165191  T        1      -0.00381200      -0.00347700      -0.00593800      -0.00381200      -0.00347700      -0.00593800       0.00000000
Co       2.18027842       1.81369311       7.92555046  F        0       0.00000000       0.00000000       0.00000000      -0.00978000      -0.02021800      -0.08371800       0.00000000
Pt       3.52128828       3.66570193       6.58454037  F        0       0.00000000       0.00000000       0.00000000      -0.01240600      -0.00439600       0.22608100       0.00000000
Co       2.18027842       1.81369311      10.60756969  F        0       0.00000000       0.00000000       0.00000000      -0.03990600       0.01378300      -0.15830500       0.00000000
Pt       3.52128828       3.66570193       9.26655960  F        0       0.00000000       0.00000000       0.00000000       0.02110100       0.10037400      -0.13634000       0.00000000
Co       2.16428591       1.82611936      13.03421413  T        1      -0.00425400       0.00198800      -0.01365600      -0.00425400       0.00198800      -0.01365600       0.00000000
Pt       3.52189867       3.66818286      11.98949647  T        1      -0.00280700       0.00206600      -0.00527700      -0.00280700       0.00206600      -0.00527700       0.00000000
Co       4.86229813       5.51771075       7.92555046  F        0       0.00000000       0.00000000       0.00000000       0.00183000       0.00182200      -0.26280300       0.00000000
Pt       6.20330822       7.36971981       6.58454037  F        0       0.00000000       0.00000000       0.00000000       0.02572500       0.01631800       0.21105100       0.00000000
Co       4.86229813       5.51771075      10.60756969  F        0       0.00000000       0.00000000       0.00000000       0.02873000      -0.00017900       0.13112500       0.00000000
Pt       6.20330822       7.36971981       9.26655960  F        0       0.00000000       0.00000000       0.00000000      -0.02491100      -0.07841100      -0.07058500       0.00000000
Co       4.89004058       5.51948902      13.16713300  T        1       0.01810600       0.00277500      -0.02281400       0.01810600       0.00277500      -0.02281400       0.00000000
Pt       6.20313748       7.38873697      12.00169558  T        1      -0.00748400       0.00026000      -0.00468000      -0.00748400       0.00026000      -0.00468000       0.00000000
Co       4.86229813       9.22172887       7.92555046  F        0       0.00000000       0.00000000       0.00000000       0.00042800       0.04256200      -0.05916400       0.00000000
Pt       6.20330822      11.07373768       6.58454037  F        0       0.00000000       0.00000000       0.00000000      -0.00108000      -0.00143200       0.12256200       0.00000000
Co       4.86229813       9.22172887      10.60756969  F        0       0.00000000       0.00000000       0.00000000      -0.00440200       0.03104200      -0.17190800       0.00000000
Pt       6.20330822      11.07373768       9.26655960  F        0       0.00000000       0.00000000       0.00000000      -0.00721000      -0.00358100       0.17882200       0.00000000
Co       4.85463018       9.22037112      13.03493219  T        1      -0.00749600      -0.00477600       0.01341800      -0.00749600      -0.00477600       0.01341800       0.00000000
Pt       6.20874006      11.07300808      12.04786335  T        1      -0.00266400      -0.00258900      -0.00408500      -0.00266400      -0.00258900      -0.00408500       0.00000000
Co       4.86229813       1.81369311       7.92555046  F        0       0.00000000       0.00000000       0.00000000       0.00053600      -0.03999100      -0.06171700       0.00000000
Pt       6.20330822       3.66570193       6.58454037  F        0       0.00000000       0.00000000       0.00000000       0.02564200      -0.01864800       0.21172700       0.00000000
Co       4.86229813       1.81369311      10.60756969  F        0       0.00000000       0.00000000       0.00000000      -0.00385800      -0.02975600      -0.17672500       0.00000000
Pt       6.20330822       3.66570193       9.26655960  F        0       0.00000000       0.00000000       0.00000000      -0.02540200       0.07249900      -0.07425400       0.00000000
Co       4.85605813       1.81574855      13.03469031  T        1      -0.00530900       0.00113900      -0.01977800      -0.00530900       0.00113900      -0.01977800       0.00000000
Pt       6.20226051       3.64821815      12.00049021  T        1      -0.00325500       0.00124100      -0.00091200      -0.00325500       0.00124100      -0.00091200       0.00000000
Co       7.54431784       5.51771075       7.92555046  F        0       0.00000000       0.00000000       0.00000000       0.00123500       0.00303500      -0.08787100       0.00000000
Pt       0.83926833       7.36971981       6.58454037  F        0       0.00000000       0.00000000       0.00000000      -0.01469100       0.00924500       0.18155100       0.00000000
Co       7.54431784       5.51771075      10.60756969  F        0       0.00000000       0.00000000       0.00000000      -0.04034000       0.00305600      -0.07012900       0.00000000
Pt       0.83926833       7.36971981       9.26655960  F        0       0.00000000       0.00000000       0.00000000       0.01626500      -0.05732700       0.09273500       0.00000000
Co       7.45158303       5.51807955      13.08139478  T        1       0.00092700       0.00309500       0.02055400       0.00092700       0.00309500       0.02055400       0.00000000
Pt       0.83818314       7.32817048      12.04092034  T        1      -0.01009300       0.00452400      -0.00428100      -0.01009300       0.00452400      -0.00428100       0.00000000
Co       7.54431784       9.22172887       7.92555046  F        0       0.00000000       0.00000000       0.00000000       0.00111400       0.01897800      -0.10326000       0.00000000
Pt       0.83926833      11.07373768       6.58454037  F        0       0.00000000       0.00000000       0.00000000      -0.00497300       0.00059800       0.13827900       0.00000000
Co       7.54431784       9.22172887      10.60756969  F        0       0.00000000       0.00000000       0.00000000       0.08942400       0.03827100      -0.16125700       0.00000000
Pt       0.83926833      11.07373768       9.26655960  F        0       0.00000000       0.00000000       0.00000000       0.00844700      -0.00214700       0.11600000       0.00000000
Co       7.57345513       9.21421563      13.04260681  T        1      -0.01036500      -0.00111500       0.00149900      -0.01036500      -0.00111500       0.00149900       0.00000000
Pt       0.84235951      11.07396888      12.03669113  T        1      -0.00812300      -0.00283600      -0.00867100      -0.00812300      -0.00283600      -0.00867100       0.00000000
Co       7.54431784       1.81369311       7.92555046  F        0       0.00000000       0.00000000       0.00000000       0.00055400      -0.01339700      -0.10552700       0.00000000
Pt       0.83926833       3.66570193       6.58454037  F        0       0.00000000       0.00000000       0.00000000      -0.01436200      -0.00913200       0.17687800       0.00000000
Co       7.54431784       1.81369311      10.60756969  F        0       0.00000000       0.00000000       0.00000000       0.09297800      -0.03670600      -0.16487900       0.00000000
Pt       0.83926833       3.66570193       9.26655960  F        0       0.00000000       0.00000000       0.00000000       0.01876200       0.05348600       0.10183000       0.00000000
Co       7.57112968       1.82215785      13.04137559  T        1      -0.00263500      -0.00009400      -0.00070700      -0.00263500      -0.00009400      -0.00070700       0.00000000
Pt       0.83840640       3.70934320      12.04247690  T        1      -0.00735200      -0.00401100      -0.00662400      -0.00735200      -0.00401100      -0.00662400       0.00000000
C        5.39281439       5.50680664      15.14396912  T        2       0.03091500       0.01589300      -0.01471500       0.03091500       0.01589300      -0.01471500       0.00000000
C        4.02540990       5.55250777      14.74731097  T        2       0.02215500      -0.00842600       0.02420600       0.02215500      -0.00842600       0.02420600       0.00000000
H        5.77228763       4.56677306      15.56821591  T        2       0.01187700       0.00597000      -0.01313600       0.01187700       0.00597000      -0.01313600       0.00000000
H        5.85064608       6.42319408      15.54165847  T        2      -0.01871300      -0.00684300       0.01114000      -0.01871300      -0.00684300       0.01114000       0.00000000
O        2.82318181       5.56998969      15.09328910  T        2      -0.03738400      -0.01955500      -0.00069700      -0.03738400      -0.01955500      -0.00069700       0.00000000
59
Lattice="8.046059608459473 0.0 -1.293905083852567e-15 1.7869544921198226e-15 11.112053871154785 -1.7869544921198226e-15 0.0 0.0 29.50221824645996" Properties=species:S:1:pos:R:3:move_mask:L:1:tags:I:1:DFT_forces:R:3:forces:R:3 DFT_energy=-328.17755625 energy=-328.17755625 pbc="T T T"
Co       2.18027842       5.51771075       7.92555046  F        0       0.00000000       0.00000000       0.00000000       0.00000000       0.00000000       0.00000000
Pt       3.52128828       7.36971981       6.58454037  F        0       0.00000000       0.00000000       0.00000000       0.00000000       0.00000000       0.00000000
Co       2.18027842       5.51771075      10.60756969  F        0       0.00000000       0.00000000       0.00000000       0.00000000       0.00000000       0.00000000
Pt       3.52128828       7.36971981       9.26655960  F        0       0.00000000       0.00000000       0.00000000       0.00000000       0.00000000       0.00000000
Co       2.37124328       5.51822307      13.20156677  T        1      -0.01577200      -0.00077700       0.01348100      -0.01577200      -0.00077700       0.01348100
Pt       3.52277115       7.37293165      11.97958655  T        1       0.00154700      -0.00167500       0.01407500       0.00154700      -0.00167500       0.01407500
Co       2.18027842       9.22172887       7.92555046  F        0       0.00000000       0.00000000       0.00000000       0.00000000       0.00000000       0.00000000
Pt       3.52128828      11.07373768       6.58454037  F        0       0.00000000       0.00000000       0.00000000       0.00000000       0.00000000       0.00000000
Co       2.18027842       9.22172887      10.60756969  F        0       0.00000000       0.00000000       0.00000000       0.00000000       0.00000000       0.00000000
Pt       3.52128828      11.07373768       9.26655960  F        0       0.00000000       0.00000000       0.00000000       0.00000000       0.00000000       0.00000000
Co       2.13815416       9.19762754      13.02798419  T        1      -0.00349900      -0.00571400      -0.00541700      -0.00349900      -0.00571400      -0.00541700
Pt       3.51838455      11.07454233      12.05218217  T        1      -0.00311100       0.00203900      -0.00422100      -0.00311100       0.00203900      -0.00422100
Co       2.18027842       1.81369311       7.92555046  F        0       0.00000000       0.00000000       0.00000000       0.00000000       0.00000000       0.00000000
Pt       3.52128828       3.66570193       6.58454037  F        0       0.00000000       0.00000000       0.00000000       0.00000000       0.00000000       0.00000000
Co       2.18027842       1.81369311      10.60756969  F        0       0.00000000       0.00000000       0.00000000       0.00000000       0.00000000       0.00000000
Pt       3.52128828       3.66570193       9.26655960  F        0       0.00000000       0.00000000       0.00000000       0.00000000       0.00000000       0.00000000
Co       2.13788141       1.83858808      13.02852791  T        1       0.00001600       0.01017800       0.00039800       0.00001600       0.01017800       0.00039800
Pt       3.52264588       3.66370116      11.97968811  T        1       0.00575900      -0.00579400       0.02295900       0.00575900      -0.00579400       0.02295900
Co       4.86229813       5.51771075       7.92555046  F        0       0.00000000       0.00000000       0.00000000       0.00000000       0.00000000       0.00000000
Pt       6.20330822       7.36971981       6.58454037  F        0       0.00000000       0.00000000       0.00000000       0.00000000       0.00000000       0.00000000
Co       4.86229813       5.51771075      10.60756969  F        0       0.00000000       0.00000000       0.00000000       0.00000000       0.00000000       0.00000000
Pt       6.20330822       7.36971981       9.26655960  F        0       0.00000000       0.00000000       0.00000000       0.00000000       0.00000000       0.00000000
Co       4.85321974       5.51733451      13.32980906  T        1       0.00596000       0.00919500      -0.00569700       0.00596000       0.00919500      -0.00569700
Pt       6.19928842       7.36676288      11.97509490  T        1       0.01239200       0.00397900       0.00318400       0.01239200       0.00397900       0.00318400
Co       4.86229813       9.22172887       7.92555046  F        0       0.00000000       0.00000000       0.00000000       0.00000000       0.00000000       0.00000000
Pt       6.20330822      11.07373768       6.58454037  F        0       0.00000000       0.00000000       0.00000000       0.00000000       0.00000000       0.00000000
Co       4.86229813       9.22172887      10.60756969  F        0       0.00000000       0.00000000       0.00000000       0.00000000       0.00000000       0.00000000
Pt       6.20330822      11.07373768       9.26655960  F        0       0.00000000       0.00000000       0.00000000       0.00000000       0.00000000       0.00000000
Co       4.86415498       9.21415714      13.03397583  T        1      -0.00140600      -0.00917100      -0.00387000      -0.00140600      -0.00917100      -0.00387000
Pt       6.20882204      11.07448710      12.05442780  T        1      -0.00408300       0.00078900      -0.00221100      -0.00408300       0.00078900      -0.00221100
Co       4.86229813       1.81369311       7.92555046  F        0       0.00000000       0.00000000       0.00000000       0.00000000       0.00000000       0.00000000
Pt       6.20330822       3.66570193       6.58454037  F        0       0.00000000       0.00000000       0.00000000       0.00000000       0.00000000       0.00000000
Co       4.86229813       1.81369311      10.60756969  F        0       0.00000000       0.00000000       0.00000000       0.00000000       0.00000000       0.00000000
Pt       6.20330822       3.66570193       9.26655960  F        0       0.00000000       0.00000000       0.00000000       0.00000000       0.00000000       0.00000000
Co       4.86448302       1.82275943      13.03468493  T        1      -0.00661200       0.00690100       0.00570800      -0.00661200       0.00690100       0.00570800
Pt       6.20007441       3.66778298      11.97345377  T        1       0.00634400      -0.00410800       0.01316700       0.00634400      -0.00410800       0.01316700
Co       7.54431784       5.51771075       7.92555046  F        0       0.00000000       0.00000000       0.00000000       0.00000000       0.00000000       0.00000000
Pt       0.83926833       7.36971981       6.58454037  F        0       0.00000000       0.00000000       0.00000000       0.00000000       0.00000000       0.00000000
Co       7.54431784       5.51771075      10.60756969  F        0       0.00000000       0.00000000       0.00000000       0.00000000       0.00000000       0.00000000
Pt       0.83926833       7.36971981       9.26655960  F        0       0.00000000       0.00000000       0.00000000       0.00000000       0.00000000       0.00000000
Co       7.33016477       5.51663003      13.21856417  T        1       0.01035100      -0.00085000      -0.00043300       0.01035100      -0.00085000      -0.00043300
Pt       0.83439378       7.24745273      12.08458346  T        1      -0.00454700      -0.00217000      -0.00054300      -0.00454700      -0.00217000      -0.00054300
Co       7.54431784       9.22172887       7.92555046  F        0       0.00000000       0.00000000       0.00000000       0.00000000       0.00000000       0.00000000
Pt       0.83926833      11.07373768       6.58454037  F        0       0.00000000       0.00000000       0.00000000       0.00000000       0.00000000       0.00000000
Co       7.54431784       9.22172887      10.60756969  F        0       0.00000000       0.00000000       0.00000000       0.00000000       0.00000000       0.00000000
Pt       0.83926833      11.07373768       9.26655960  F        0       0.00000000       0.00000000       0.00000000       0.00000000       0.00000000       0.00000000
Co       7.58665747       9.19890495      13.02557456  T        1      -0.00919600      -0.01223500       0.00020400      -0.00919600      -0.01223500       0.00020400
Pt       0.84042799      11.07435442      12.03448578  T        1      -0.00558700       0.00156700       0.00499700      -0.00558700       0.00156700       0.00499700
Co       7.54431784       1.81369311       7.92555046  F        0       0.00000000       0.00000000       0.00000000       0.00000000       0.00000000       0.00000000
Pt       0.83926833       3.66570193       6.58454037  F        0       0.00000000       0.00000000       0.00000000       0.00000000       0.00000000       0.00000000
Co       7.54431784       1.81369311      10.60756969  F        0       0.00000000       0.00000000       0.00000000       0.00000000       0.00000000       0.00000000
Pt       0.83926833       3.66570193       9.26655960  F        0       0.00000000       0.00000000       0.00000000       0.00000000       0.00000000       0.00000000
Co       7.58661230       1.83787248      13.02834893  T        1      -0.00804200       0.00601700      -0.02372400      -0.00804200       0.00601700      -0.02372400
Pt       0.83493874       3.78842237      12.08347541  T        1      -0.00434500      -0.00472000       0.00579300      -0.00434500      -0.00472000       0.00579300
C        6.20963676       5.50790372      14.71529373  T        2       0.00928600       0.00427400       0.01664400       0.00928600       0.00427400       0.01664400
C        3.54775276       5.53516534      14.68186614  T        2      -0.03054700      -0.01019800       0.02182600      -0.03054700      -0.01019800       0.02182600
H        6.22841667       4.58681892      15.32532882  T        2       0.01869000      -0.00237400       0.01142300       0.01869000      -0.00237400       0.01142300
H        6.24534475       6.42386858      15.33244571  T        2       0.00906200       0.00401500       0.01524600       0.00906200       0.00401500       0.01524600
O        3.35822380       5.54882279      15.86026581  T        2       0.00357700       0.00438300       0.00702200       0.00357700       0.00438300       0.00702200
59
Lattice="8.046059608459473 0.0 -1.293905083852567e-15 1.7869544921198226e-15 11.112053871154785 -1.7869544921198226e-15 0.0 0.0 29.50221824645996" Properties=species:S:1:pos:R:3:move_mask:L:1:tags:I:1:DFT_forces:R:3:forces:R:3 DFT_energy=-328.04465258 energy=-328.04465258 pbc="T T T"
Co       2.18027842       5.51771075       7.92555046  F        0       0.00000000       0.00000000       0.00000000       0.00000000       0.00000000       0.00000000
Pt       3.52128828       7.36971981       6.58454037  F        0       0.00000000       0.00000000       0.00000000       0.00000000       0.00000000       0.00000000
Co       2.18027842       5.51771075      10.60756969  F        0       0.00000000       0.00000000       0.00000000       0.00000000       0.00000000       0.00000000
Pt       3.52128828       7.36971981       9.26655960  F        0       0.00000000       0.00000000       0.00000000       0.00000000       0.00000000       0.00000000
Co       2.45616268       5.51753827      13.23466917  T        1       0.05462400       0.00323200       0.02635100       0.05462400       0.00323200       0.02635100
Pt       3.55760326       7.35796876      11.98961472  T        1       0.00562700      -0.00489900       0.00023500       0.00562700      -0.00489900       0.00023500
Co       2.18027842       9.22172887       7.92555046  F        0       0.00000000       0.00000000       0.00000000       0.00000000       0.00000000       0.00000000
Pt       3.52128828      11.07373768       6.58454037  F        0       0.00000000       0.00000000       0.00000000       0.00000000       0.00000000       0.00000000
Co       2.18027842       9.22172887      10.60756969  F        0       0.00000000       0.00000000       0.00000000       0.00000000       0.00000000       0.00000000
Pt       3.52128828      11.07373768       9.26655960  F        0       0.00000000       0.00000000       0.00000000       0.00000000       0.00000000       0.00000000
Co       2.16814801       9.19779256      13.02926806  T        1      -0.00274400      -0.00244000       0.01476000      -0.00274400      -0.00244000       0.01476000
Pt       3.53056568      11.07651937      12.05161804  T        1       0.00377900      -0.00841400      -0.00168700       0.00377900      -0.00841400      -0.00168700
Co       2.18027842       1.81369311       7.92555046  F        0       0.00000000       0.00000000       0.00000000       0.00000000       0.00000000       0.00000000
Pt       3.52128828       3.66570193       6.58454037  F        0       0.00000000       0.00000000       0.00000000       0.00000000       0.00000000       0.00000000
Co       2.18027842       1.81369311      10.60756969  F        0       0.00000000       0.00000000       0.00000000       0.00000000       0.00000000       0.00000000
Pt       3.52128828       3.66570193       9.26655960  F        0       0.00000000       0.00000000       0.00000000       0.00000000       0.00000000       0.00000000
Co       2.16519539       1.84060644      13.02963022  T        1      -0.00118600      -0.00224100       0.00445600      -0.00118600      -0.00224100       0.00445600
Pt       3.55828582       3.67790147      11.98930411  T        1       0.00085300       0.00625600       0.00436500       0.00085300       0.00625600       0.00436500
Co       4.86229813       5.51771075       7.92555046  F        0       0.00000000       0.00000000       0.00000000       0.00000000       0.00000000       0.00000000
Pt       6.20330822       7.36971981       6.58454037  F        0       0.00000000       0.00000000       0.00000000       0.00000000       0.00000000       0.00000000
Co       4.86229813       5.51771075      10.60756969  F        0       0.00000000       0.00000000       0.00000000       0.00000000       0.00000000       0.00000000
Pt       6.20330822       7.36971981       9.26655960  F        0       0.00000000       0.00000000       0.00000000       0.00000000       0.00000000       0.00000000
Co       5.01680222       5.51812045      13.41600146  T        1       0.04221500      -0.00460400       0.04140900       0.04221500      -0.00460400       0.04140900
Pt       6.22790962       7.36079385      11.97707703  T        1       0.00243400       0.00235000       0.00827200       0.00243400       0.00235000       0.00827200
Co       4.86229813       9.22172887       7.92555046  F        0       0.00000000       0.00000000       0.00000000       0.00000000       0.00000000       0.00000000
Pt       6.20330822      11.07373768       6.58454037  F        0       0.00000000       0.00000000       0.00000000       0.00000000       0.00000000       0.00000000
Co       4.86229813       9.22172887      10.60756969  F        0       0.00000000       0.00000000       0.00000000       0.00000000       0.00000000       0.00000000
Pt       6.20330822      11.07373768       9.26655960  F        0       0.00000000       0.00000000       0.00000000       0.00000000       0.00000000       0.00000000
Co       4.88094119       9.21046102      13.03405843  T        1       0.00230000      -0.00816300       0.00820900       0.00230000      -0.00816300       0.00820900
Pt       6.21854190      11.07454896      12.05228607  T        1       0.00318000      -0.01045000       0.00026000       0.00318000      -0.01045000       0.00026000
Co       4.86229813       1.81369311       7.92555046  F        0       0.00000000       0.00000000       0.00000000       0.00000000       0.00000000       0.00000000
Pt       6.20330822       3.66570193       6.58454037  F        0       0.00000000       0.00000000       0.00000000       0.00000000       0.00000000       0.00000000
Co       4.86229813       1.81369311      10.60756969  F        0       0.00000000       0.00000000       0.00000000       0.00000000       0.00000000       0.00000000
Pt       6.20330822       3.66570193       9.26655960  F        0       0.00000000       0.00000000       0.00000000       0.00000000       0.00000000       0.00000000
Co       4.88550070       1.82790302      13.03460656  T        1      -0.00421800       0.00119400      -0.01474000      -0.00421800       0.00119400      -0.01474000
Pt       6.22889248       3.67614424      11.97651464  T        1       0.00225900       0.00416800       0.00088400       0.00225900       0.00416800       0.00088400
Co       7.54431784       5.51771075       7.92555046  F        0       0.00000000       0.00000000       0.00000000       0.00000000       0.00000000       0.00000000
Pt       0.83926833       7.36971981       6.58454037  F        0       0.00000000       0.00000000       0.00000000       0.00000000       0.00000000       0.00000000
Co       7.54431784       5.51771075      10.60756969  F        0       0.00000000       0.00000000       0.00000000       0.00000000       0.00000000       0.00000000
Pt       0.83926833       7.36971981       9.26655960  F        0       0.00000000       0.00000000       0.00000000       0.00000000       0.00000000       0.00000000
Co       7.46896666       5.51880836      13.17710882  T        1      -0.02972400      -0.00194400      -0.00302400      -0.02972400      -0.00194400      -0.00302400
Pt       0.87690421       7.26470785      12.06842263  T        1      -0.00116300      -0.02223100       0.01813400      -0.00116300      -0.02223100       0.01813400
Co       7.54431784       9.22172887       7.92555046  F        0       0.00000000       0.00000000       0.00000000       0.00000000       0.00000000       0.00000000
Pt       0.83926833      11.07373768       6.58454037  F        0       0.00000000       0.00000000       0.00000000       0.00000000       0.00000000       0.00000000
Co       7.54431784       9.22172887      10.60756969  F        0       0.00000000       0.00000000       0.00000000       0.00000000       0.00000000       0.00000000
Pt       0.83926833      11.07373768       9.26655960  F        0       0.00000000       0.00000000       0.00000000       0.00000000       0.00000000       0.00000000
Co       7.59146015       9.19984306      13.02344006  T        1       0.02097700      -0.01624800       0.01722100       0.02097700      -0.01624800       0.01722100
Pt       0.85307739      11.07456672      12.04114708  T        1       0.00172000      -0.00560000      -0.00929500       0.00172000      -0.00560000      -0.00929500