53
Lattice="7.432009696960449 -4.0941581027508943e-16 -3.3431336879730225 -4.380740642547607 13.272353172302246 0.19381478428840637 -0.0 4.865518608805153e-15 39.729976654052734" Properties=species:S:1:pos:R:3:move_mask:L:1:tags:I:1:DFT_forces:R:3:forces:R:3:magmoms:R:1 DFT_energy=-363.69610649 energy=-363.69610649 dipole="_JSON [[0.0, 0.0, 0.0]]" magmom=0.0 free_energy=-363.69477877 pbc="T T T"
Zr       1.33042908       4.89310470      16.71923309  T        1      -0.00257300       0.01081500       0.01929300      -0.00257300       0.01081500       0.01929300       0.00000000
Zr      -0.19912523       9.30078602      13.49111737  F        0       0.00000000       0.00000000       0.00000000      -0.23419700       0.18240300       0.30856300       0.00000000
Zr       2.72136855       0.45255041      10.05107723  F        0       0.00000000       0.00000000       0.00000000       0.48948800      -0.33701300       0.34703400       0.00000000
Zr       5.51125969       2.65419949      16.61602093  T        1       0.00430600       0.00734200       0.00372100       0.00430600       0.00734200       0.00372100       0.00000000
Zr       4.19096732       7.08872700      13.46787061  F        0       0.00000000       0.00000000       0.00000000      -0.11901200      -0.26808700      -0.58705000       0.00000000
Zr       2.73072028      11.51284456      10.22164430  F        0       0.00000000       0.00000000       0.00000000       0.23347400       0.09631400      -0.19390800       0.00000000
Zr      -1.29981536      12.63555288      13.56477918  F        0       0.00000000       0.00000000       0.00000000      -0.09668500      -0.11718600      -0.01247500       0.00000000
Zr       1.62067842       3.78731728      10.12473764  F        0       0.00000000       0.00000000       0.00000000       0.62673700       0.14060200       0.46588500       0.00000000
Zr       0.18226691       8.21273795      16.86759518  T        1      -0.01325900       0.00155900      -0.01292700      -0.01325900       0.00155900      -0.01292700       0.00000000
Zr       0.46478146       1.57525840      12.59623708  F        0       0.00000000       0.00000000       0.00000000       0.02990400      -0.21453700      -0.04807400       0.00000000
Zr      -0.87127390       6.08243935      18.76331310  T        1       0.00967600       0.00591200       0.00898000       0.00967600       0.00591200       0.00898000       0.00000000
Zr      -2.43737433      10.41106968      16.14906624  T        1      -0.00685100       0.00144400      -0.00956100      -0.00685100       0.00144400      -0.00956100       0.00000000
Zr       5.29165721       3.75396037      13.39421071  F        0       0.00000000       0.00000000       0.00000000       0.26133100      -0.09384000      -0.12477600       0.00000000
Zr       3.83141065       8.17807770      10.14798440  F        0       0.00000000       0.00000000       0.00000000       0.19900100      -0.06921400      -0.36062100       0.00000000
Zr       2.28293651      12.76849316      16.62797923  T        1       0.01011300       0.00594700      -0.01460300       0.01011300       0.00594700      -0.01460300       0.00000000
Zr       0.49126633       1.60625640      17.52279063  T        1      -0.00016500       0.00010700       0.00036200      -0.00016500       0.00010700       0.00036200       0.00000000
Zr      -0.98445547       5.96601915      14.26584424  F        0       0.00000000       0.00000000       0.00000000      -0.27992200       0.17734000       0.26869900       0.00000000
Zr      -2.44470227      10.39013720      11.01961888  F        0       0.00000000       0.00000000       0.00000000       0.24867100      -0.03988300       0.51231700       0.00000000
Zr       2.70424843       2.29593289      15.05415334  F        0       0.00000000       0.00000000       0.00000000       0.10205200      -0.42901700      -0.29596700       0.00000000
Zr       1.24400163       6.72005033      11.80792798  F        0       0.00000000       0.00000000       0.00000000      -0.52743900      -0.07005200      -0.28016600       0.00000000
Zr      -0.21624523      11.14416838       8.56170167  F        0       0.00000000       0.00000000       0.00000000       0.55457900       0.85505900       0.46672000       0.00000000
Zr       2.01771688      11.88152075      13.52794828  F        0       0.00000000       0.00000000       0.00000000      -0.05372200      -0.12960800       0.17378000       0.00000000
Zr       4.93821073       3.03328586      10.08790673  F        0       0.00000000       0.00000000       0.00000000      -0.21972700      -0.25792300      -0.33181100       0.00000000
Zr       3.40693935       7.23771845      16.77422153  T        1      -0.00999200       0.00884800       0.02426100      -0.00999200       0.00884800       0.02426100       0.00000000
Zr       5.66833401       0.82122660      11.71101986  F        0       0.00000000       0.00000000       0.00000000      -0.23460700       0.31292200       0.14412500       0.00000000
Zr       4.20808721       5.24534464       8.46479405  F        0       0.00000000       0.00000000       0.00000000      -0.42945500       1.17968600      -0.02293700       0.00000000
Zr       2.81672949       9.71100283      15.15015916  T        1      -0.00676900       0.00493500      -0.01424000      -0.00676900       0.00493500      -0.01424000       0.00000000
Zr      -0.89580376      13.26981738      16.98525999  T        1       0.00131000       0.00187400      -0.00124700       0.00131000       0.00187400      -0.00124700       0.00000000
Zr       1.97412515       4.50799179      13.43104161  F        0       0.00000000       0.00000000       0.00000000       0.05914400       0.14203000      -0.07795700       0.00000000
Zr       0.51387823       8.93210936      10.18481435  F        0       0.00000000       0.00000000       0.00000000      -0.17234300       0.07105800      -0.30532500       0.00000000
Ge      -0.05758813       3.15788436      14.98809423  F        0       0.00000000       0.00000000       0.00000000       0.01170800       0.01157600       0.04934500       0.00000000
Ge      -1.51783502       7.58200216      11.74186887  F        0       0.00000000       0.00000000       0.00000000      -0.18558600       0.20400500       0.03572600       0.00000000
Ge      -2.99076502      12.09394760      18.46703949  T        1       0.00543500      -0.00328100      -0.01206500       0.00543500      -0.00328100      -0.01206500       0.00000000
Ge       5.21718550       0.94582510      14.56689297  F        0       0.00000000       0.00000000       0.00000000      -0.28031500       0.11888500      -0.23269300       0.00000000
Ge       3.75693870       5.36994314      11.32066526  F        0       0.00000000       0.00000000       0.00000000       0.03617700       0.02405400      -0.36999900       0.00000000
Ge       2.29669166       9.79406118       8.07443990  F        0       0.00000000       0.00000000       0.00000000      -0.33624000      -0.18423600       0.14983000       0.00000000
Ge       3.06118423       2.62531927      17.86802236  T        1       0.00666300       0.00531900      -0.01152000       0.00666300       0.00531900      -0.01152000       0.00000000
Ge       1.53233743       7.08872700      14.66379918  F        0       0.00000000       0.00000000       0.00000000       0.01214000       0.24511600       0.20413000       0.00000000
Ge       0.07209045      11.51284456      11.41757382  F        0       0.00000000       0.00000000       0.00000000      -0.23415000      -0.01683300      -0.26694200       0.00000000
Ge       3.97037293       4.84655482      15.55385934  T        1      -0.01309300      -0.01077800      -0.00719000      -0.01309300      -0.01077800      -0.00719000       0.00000000
Ge       2.45950460       9.30078602      12.29518880  F        0       0.00000000       0.00000000       0.00000000       0.17486200       0.04152400       0.10521200       0.00000000
Ge       5.37999845       0.45255041       8.85514770  F        0       0.00000000       0.00000000       0.00000000      -0.43339000      -0.55141000       0.03639500       0.00000000
Ge       3.15539718       2.17133433      12.19828214  F        0       0.00000000       0.00000000       0.00000000      -0.10930300      -0.13292100      -0.17401300       0.00000000
Ge       1.69515014       6.59545183       8.95205583  F        0       0.00000000       0.00000000       0.00000000       0.73365600      -0.50358800       0.33936500       0.00000000
Ge       0.26905182      10.99764113      15.71440817  T        1       0.00618100       0.00673700       0.00743200       0.00618100       0.00673700       0.00743200       0.00000000
Ge      -3.38257957      13.23162889      15.31402768  F        0       0.00000000       0.00000000       0.00000000       0.27442900      -0.06002700       0.19733300       0.00000000
Ge      -0.46208584       4.38339305      11.87398709  F        0       0.00000000       0.00000000       0.00000000      -0.05581900      -0.36169800      -0.03997800       0.00000000
Ge      -1.93578678       8.69190899      18.67616313  T        1      -0.00536600       0.00049200      -0.00999400      -0.00536600       0.00049200      -0.00999400       0.00000000
C        1.23729517       6.28223776      19.69097570  T        2      -0.01305700       0.00816000      -0.02305900      -0.01305700       0.00816000      -0.02305900       0.00000000
C        1.52688518       6.64010858      18.28978690  T        2       0.00204300      -0.01085400      -0.04002800       0.00204300      -0.01085400      -0.04002800       0.00000000
H        1.30851719       7.10907030      20.41931869  T        2       0.00175000       0.01745300       0.02596000       0.00175000       0.01745300       0.02596000       0.00000000
H        1.68511049       5.34718329      20.06066373  T        2      -0.00351000      -0.01822600      -0.00269000      -0.00351000      -0.01822600      -0.00269000       0.00000000
O        1.91452458       8.06401701      18.08949728  T        2      -0.01828500      -0.00930500      -0.01065300      -0.01828500      -0.00930500      -0.01065300       0.00000000
53
Lattice="7.432009696960449 -4.0941581027508943e-16 -3.3431336879730225 -4.380740642547607 13.272353172302246 0.19381478428840637 -0.0 4.865518608805153e-15 39.729976654052734" Properties=species:S:1:pos:R:3:move_mask:L:1:tags:I:1:DFT_forces:R:3:forces:R:3 DFT_energy=-363.64989555 energy=-363.64989555 pbc="T T T"
Zr       1.33996129       4.89019061      16.71330609  T        1      -0.00020600      -0.00153400      -0.00005900      -0.00020600      -0.00153400      -0.00005900
Zr      -0.19912523       9.30078602      13.49111737  F        0       0.00000000       0.00000000       0.00000000       0.00000000       0.00000000       0.00000000
Zr       2.72136855       0.45255041      10.05107723  F        0       0.00000000       0.00000000       0.00000000       0.00000000       0.00000000       0.00000000
Zr       5.51674082       2.66421922      16.61412540  T        1       0.00051300       0.00462500       0.00202400       0.00051300       0.00462500       0.00202400
Zr       4.19096732       7.08872700      13.46787061  F        0       0.00000000       0.00000000       0.00000000       0.00000000       0.00000000       0.00000000
Zr       2.73072028      11.51284456      10.22164430  F        0       0.00000000       0.00000000       0.00000000       0.00000000       0.00000000       0.00000000
Zr      -1.29981536      12.63555288      13.56477918  F        0       0.00000000       0.00000000       0.00000000       0.00000000       0.00000000       0.00000000
Zr       1.62067842       3.78731728      10.12473764  F        0       0.00000000       0.00000000       0.00000000       0.00000000       0.00000000       0.00000000
Zr       0.13464381       8.23631096      16.83516872  T        1       0.00033800       0.00077200       0.00011500       0.00033800       0.00077200       0.00011500
Zr       0.46478146       1.57525840      12.59623708  F        0       0.00000000       0.00000000       0.00000000       0.00000000       0.00000000       0.00000000
Zr      -0.84529068       6.08428106      18.75153136  T        1       0.00414200      -0.00077200       0.00066900       0.00414200      -0.00077200       0.00066900
Zr      -2.44754267      10.42084565      16.14874379  T        1      -0.00020800       0.00047300      -0.00050400      -0.00020800       0.00047300      -0.00050400
Zr       5.29165721       3.75396037      13.39421071  F        0       0.00000000       0.00000000       0.00000000       0.00000000       0.00000000       0.00000000
Zr       3.83141065       8.17807770      10.14798440  F        0       0.00000000       0.00000000       0.00000000       0.00000000       0.00000000       0.00000000
Zr       2.28121979      12.77516625      16.62817601  T        1       0.00197600      -0.00403600       0.00157700       0.00197600      -0.00403600       0.00157700
Zr       0.49082553       1.60618880      17.52388658  T        1       0.00012300       0.00139700      -0.00078500       0.00012300       0.00139700      -0.00078500
Zr      -0.98445547       5.96601915      14.26584424  F        0       0.00000000       0.00000000       0.00000000       0.00000000       0.00000000       0.00000000
Zr      -2.44470227      10.39013720      11.01961888  F        0       0.00000000       0.00000000       0.00000000       0.00000000       0.00000000       0.00000000
Zr       2.70424843       2.29593289      15.05415334  F        0       0.00000000       0.00000000       0.00000000       0.00000000       0.00000000       0.00000000
Zr       1.24400163       6.72005033      11.80792798  F        0       0.00000000       0.00000000       0.00000000       0.00000000       0.00000000       0.00000000
Zr      -0.21624523      11.14416838       8.56170167  F        0       0.00000000       0.00000000       0.00000000       0.00000000       0.00000000       0.00000000
Zr       2.01771688      11.88152075      13.52794828  F        0       0.00000000       0.00000000       0.00000000       0.00000000       0.00000000       0.00000000
Zr       4.93821073       3.03328586      10.08790673  F        0       0.00000000       0.00000000       0.00000000       0.00000000       0.00000000       0.00000000
Zr       3.40479328       7.22920150      16.79268694  T        1       0.00204300      -0.00130300       0.00679300       0.00204300      -0.00130300       0.00679300
Zr       5.66833401       0.82122660      11.71101986  F        0       0.00000000       0.00000000       0.00000000       0.00000000       0.00000000       0.00000000
Zr       4.20808721       5.24534464       8.46479405  F        0       0.00000000       0.00000000       0.00000000       0.00000000       0.00000000       0.00000000
Zr       2.80067224       9.70794247      15.17166832  T        1      -0.00050300       0.00364300      -0.00034700      -0.00050300       0.00364300      -0.00034700
Zr      -0.90299452      13.27333273      16.99076467  T        1      -0.00138200      -0.00282300       0.00427700      -0.00138200      -0.00282300       0.00427700
Zr       1.97412515       4.50799179      13.43104161  F        0       0.00000000       0.00000000       0.00000000       0.00000000       0.00000000       0.00000000
Zr       0.51387823       8.93210936      10.18481435  F        0       0.00000000       0.00000000       0.00000000       0.00000000       0.00000000       0.00000000
Ge      -0.05758813       3.15788436      14.98809423  F        0       0.00000000       0.00000000       0.00000000       0.00000000       0.00000000       0.00000000
Ge      -1.51783502       7.58200216      11.74186887  F        0       0.00000000       0.00000000       0.00000000       0.00000000       0.00000000       0.00000000
Ge      -2.99741170      12.07743569      18.46864507  T        1       0.00252400      -0.00173800      -0.00198800       0.00252400      -0.00173800      -0.00198800
Ge       5.21718550       0.94582510      14.56689297  F        0       0.00000000       0.00000000       0.00000000       0.00000000       0.00000000       0.00000000
Ge       3.75693870       5.36994314      11.32066526  F        0       0.00000000       0.00000000       0.00000000       0.00000000       0.00000000       0.00000000
Ge       2.29669166       9.79406118       8.07443990  F        0       0.00000000       0.00000000       0.00000000       0.00000000       0.00000000       0.00000000
Ge       3.06006551       2.62849515      17.86509768  T        1      -0.00045800       0.00229800      -0.00012700      -0.00045800       0.00229800      -0.00012700
Ge       1.53233743       7.08872700      14.66379918  F        0       0.00000000       0.00000000       0.00000000       0.00000000       0.00000000       0.00000000
Ge       0.07209045      11.51284456      11.41757382  F        0       0.00000000       0.00000000       0.00000000       0.00000000       0.00000000       0.00000000
Ge       3.98574213       4.84672340      15.55289125  T        1       0.00059600      -0.00149400      -0.00156300       0.00059600      -0.00149400      -0.00156300
Ge       2.45950460       9.30078602      12.29518880  F        0       0.00000000       0.00000000       0.00000000       0.00000000       0.00000000       0.00000000
Ge       5.37999845       0.45255041       8.85514770  F        0       0.00000000       0.00000000       0.00000000       0.00000000       0.00000000       0.00000000
Ge       3.15539718       2.17133433      12.19828214  F        0       0.00000000       0.00000000       0.00000000       0.00000000       0.00000000       0.00000000
Ge       1.69515014       6.59545183       8.95205583  F        0       0.00000000       0.00000000       0.00000000       0.00000000       0.00000000       0.00000000
Ge       0.25751973      11.01890450      15.70113976  T        1      -0.00109100      -0.00169600      -0.00222600      -0.00109100      -0.00169600      -0.00222600
Ge      -3.38257957      13.23162889      15.31402768  F        0       0.00000000       0.00000000       0.00000000       0.00000000       0.00000000       0.00000000
Ge      -0.46208584       4.38339305      11.87398709  F        0       0.00000000       0.00000000       0.00000000       0.00000000       0.00000000       0.00000000
Ge      -1.95911303       8.69935178      18.66861305  T        1       0.00120500       0.00235700       0.00234500       0.00120500       0.00235700       0.00234500
C        1.26512959       6.39533166      19.64094190  T        2      -0.00096700      -0.00558600      -0.01214300      -0.00096700      -0.00558600      -0.01214300
C        1.42920440       6.68709526      18.21462270  T        2       0.00285700       0.00922800       0.00175700       0.00285700       0.00922800       0.00175700
H        1.09596349       7.25397677      20.32149216  T        2      -0.00509400       0.02229200       0.00788900      -0.00509400       0.02229200       0.00788900
H        1.90782300       5.62171561      20.08661653  T        2       0.00502100      -0.00429800       0.00512400       0.00502100      -0.00429800       0.00512400
O        1.93452259       8.24832318      17.88906407  T        2      -0.00479700      -0.00217700      -0.00157500      -0.00479700      -0.00217700      -0.00157500
53
Lattice="7.432009696960449 -4.0941581027508943e-16 -3.3431336879730225 -4.380740642547607 13.272353172302246 0.19381478428840637 -0.0 4.865518608805153e-15 39.729976654052734" Properties=species:S:1:pos:R:3:move_mask:L:1:tags:I:1:DFT_forces:R:3:forces:R:3 DFT_energy=-363.91096148 energy=-363.91096148 pbc="T T T"
Zr       1.33885321       4.88688025      16.71337737  T        1      -0.00771600      -0.03037500      -0.00396700      -0.00771600      -0.03037500      -0.00396700
Zr      -0.19912523       9.30078602      13.49111737  F        0       0.00000000       0.00000000       0.00000000       0.00000000       0.00000000       0.00000000
Zr       2.72136855       0.45255041      10.05107723  F        0       0.00000000       0.00000000       0.00000000       0.00000000       0.00000000       0.00000000
Zr       5.51680706       2.66595982      16.61467624  T        1       0.00002000       0.01391300       0.00357200       0.00002000       0.01391300       0.00357200
Zr       4.19096732       7.08872700      13.46787061  F        0       0.00000000       0.00000000       0.00000000       0.00000000       0.00000000       0.00000000
Zr       2.73072028      11.51284456      10.22164430  F        0       0.00000000       0.00000000       0.00000000       0.00000000       0.00000000       0.00000000
Zr      -1.29981536      12.63555288      13.56477918  F        0       0.00000000       0.00000000       0.00000000       0.00000000       0.00000000       0.00000000
Zr       1.62067842       3.78731728      10.12473764  F        0       0.00000000       0.00000000       0.00000000       0.00000000       0.00000000       0.00000000
Zr       0.16969515       8.24041782      16.85585028  T        1       0.31739400       0.03859900       0.18465500       0.31739400       0.03859900       0.18465500
Zr       0.46478146       1.57525840      12.59623708  F        0       0.00000000       0.00000000       0.00000000       0.00000000       0.00000000       0.00000000
Zr      -0.85043077       6.07507679      18.75911616  T        1      -0.04591000      -0.08565500       0.06926800      -0.04591000      -0.08565500       0.06926800
Zr      -2.44625747      10.42093390      16.14852897  T        1       0.01232900      -0.00045100      -0.00168200       0.01232900      -0.00045100      -0.00168200
Zr       5.29165721       3.75396037      13.39421071  F        0       0.00000000       0.00000000       0.00000000       0.00000000       0.00000000       0.00000000
Zr       3.83141065       8.17807770      10.14798440  F        0       0.00000000       0.00000000       0.00000000       0.00000000       0.00000000       0.00000000
Zr       2.27968251      12.77429559      16.62799087  T        1      -0.01677900      -0.00879800      -0.00352200      -0.01677900      -0.00879800      -0.00352200
Zr       0.49099307       1.60492266      17.52365985  T        1       0.00084100      -0.01087100      -0.00208500       0.00084100      -0.01087100      -0.00208500
Zr      -0.98445547       5.96601915      14.26584424  F        0       0.00000000       0.00000000       0.00000000       0.00000000       0.00000000       0.00000000
Zr      -2.44470227      10.39013720      11.01961888  F        0       0.00000000       0.00000000       0.00000000       0.00000000       0.00000000       0.00000000
Zr       2.70424843       2.29593289      15.05415334  F        0       0.00000000       0.00000000       0.00000000       0.00000000       0.00000000       0.00000000
Zr       1.24400163       6.72005033      11.80792798  F        0       0.00000000       0.00000000       0.00000000       0.00000000       0.00000000       0.00000000
Zr      -0.21624523      11.14416838       8.56170167  F        0       0.00000000       0.00000000       0.00000000       0.00000000       0.00000000       0.00000000
Zr       2.01771688      11.88152075      13.52794828  F        0       0.00000000       0.00000000       0.00000000       0.00000000       0.00000000       0.00000000
Zr       4.93821073       3.03328586      10.08790673  F        0       0.00000000       0.00000000       0.00000000       0.00000000       0.00000000       0.00000000
Zr       3.38929661       7.24244390      16.81809612  T        1      -0.13482100       0.12139500       0.22377400      -0.13482100       0.12139500       0.22377400
Zr       5.66833401       0.82122660      11.71101986  F        0       0.00000000       0.00000000       0.00000000       0.00000000       0.00000000       0.00000000
Zr       4.20808721       5.24534464       8.46479405  F        0       0.00000000       0.00000000       0.00000000       0.00000000       0.00000000       0.00000000
Zr       2.79712034       9.70314630      15.18663111  T        1      -0.03224300      -0.04286500       0.13442100      -0.03224300      -0.04286500       0.13442100
Zr      -0.90424520      13.27201162      16.99020389  T        1      -0.00870400      -0.01217800      -0.00576300      -0.00870400      -0.01217800      -0.00576300
Zr       1.97412515       4.50799179      13.43104161  F        0       0.00000000       0.00000000       0.00000000       0.00000000       0.00000000       0.00000000
Zr       0.51387823       8.93210936      10.18481435  F        0       0.00000000       0.00000000       0.00000000       0.00000000       0.00000000       0.00000000
Ge      -0.05758813       3.15788436      14.98809423  F        0       0.00000000       0.00000000       0.00000000       0.00000000       0.00000000       0.00000000
Ge      -1.51783502       7.58200216      11.74186887  F        0       0.00000000       0.00000000       0.00000000       0.00000000       0.00000000       0.00000000
Ge      -2.99837451      12.07456053      18.46904295  T        1      -0.00891900      -0.02868500       0.00403100      -0.00891900      -0.02868500       0.00403100
Ge       5.21718550       0.94582510      14.56689297  F        0       0.00000000       0.00000000       0.00000000       0.00000000       0.00000000       0.00000000
Ge       3.75693870       5.36994314      11.32066526  F        0       0.00000000       0.00000000       0.00000000       0.00000000       0.00000000       0.00000000
Ge       2.29669166       9.79406118       8.07443990  F        0       0.00000000       0.00000000       0.00000000       0.00000000       0.00000000       0.00000000
Ge       3.06091819       2.62703181      17.86484300  T        1       0.00861200      -0.01248100      -0.00341200       0.00861200      -0.01248100      -0.00341200
Ge       1.53233743       7.08872700      14.66379918  F        0       0.00000000       0.00000000       0.00000000       0.00000000       0.00000000       0.00000000
Ge       0.07209045      11.51284456      11.41757382  F        0       0.00000000       0.00000000       0.00000000       0.00000000       0.00000000       0.00000000
Ge       3.98529124       4.84803632      15.55341231  T        1      -0.00169000       0.01460000       0.00401900      -0.00169000       0.01460000       0.00401900
Ge       2.45950460       9.30078602      12.29518880  F        0       0.00000000       0.00000000       0.00000000       0.00000000       0.00000000       0.00000000
Ge       5.37999845       0.45255041       8.85514770  F        0       0.00000000       0.00000000       0.00000000       0.00000000       0.00000000       0.00000000
Ge       3.15539718       2.17133433      12.19828214  F        0       0.00000000       0.00000000       0.00000000       0.00000000       0.00000000       0.00000000
Ge       1.69515014       6.59545183       8.95205583  F        0       0.00000000       0.00000000       0.00000000       0.00000000       0.00000000       0.00000000
Ge       0.25568831      11.02177030      15.69796850  T        1      -0.01478800       0.02636900      -0.02493000      -0.01478800       0.02636900      -0.02493000
Ge      -3.38257957      13.23162889      15.31402768  F        0       0.00000000       0.00000000       0.00000000       0.00000000       0.00000000       0.00000000
Ge      -0.46208584       4.38339305      11.87398709  F        0       0.00000000       0.00000000       0.00000000       0.00000000       0.00000000       0.00000000
Ge      -1.96090571       8.69667477      18.66687108  T        1      -0.01946100      -0.02375400      -0.01488000      -0.01946100      -0.02375400      -0.01488000
C        1.28237310       6.39405871      19.64804834  T        2       0.15504800      -0.01366300       0.06008300       0.15504800      -0.01366300       0.06008300
C        1.35164547       6.56518436      18.22361332  T        2      -0.70044100      -1.09445000       0.07932400      -0.70044100      -1.09445000       0.07932400
H        1.08787911       7.25447787      20.31946718  T        2      -0.07272200       0.02481000      -0.00420800      -0.07272200       0.02481000      -0.00420800
H        1.91681302       5.62112691      20.10195955  T        2       0.07126700      -0.01519000       0.14075700       0.07126700      -0.01519000       0.14075700
O        1.99484903       8.38470216      17.79282960  T        2       0.53687300       1.21793200      -0.86019000       0.53687300       1.21793200      -0.86019000
53
Lattice="7.432009696960449 -4.0941581027508943e-16 -3.3431336879730225 -4.380740642547607 13.272353172302246 0.19381478428840637 -0.0 4.865518608805153e-15 39.729976654052734" Properties=species:S:1:pos:R:3:move_mask:L:1:tags:I:1:DFT_forces:R:3:forces:R:3 DFT_energy=-364.46082548 energy=-364.46082548 pbc="T T T"
Zr       1.33297140       4.88210016      16.71213466  T        1      -0.05549300      -0.05486500      -0.02002800      -0.05549300      -0.05486500      -0.02002800
Zr      -0.19912523       9.30078602      13.49111737  F        0       0.00000000       0.00000000       0.00000000       0.00000000       0.00000000       0.00000000
Zr       2.72136855       0.45255041      10.05107723  F        0       0.00000000       0.00000000       0.00000000       0.00000000       0.00000000       0.00000000
Zr       5.51713208       2.66694773      16.61546700  T        1       0.00344500       0.01645200       0.00650100       0.00344500       0.01645200       0.00650100
Zr       4.19096732       7.08872700      13.46787061  F        0       0.00000000       0.00000000       0.00000000       0.00000000       0.00000000       0.00000000
Zr       2.73072028      11.51284456      10.22164430  F        0       0.00000000       0.00000000       0.00000000       0.00000000       0.00000000       0.00000000