82
Lattice="12.781599044799805 0.0 -2.0554378901363078e-15 3.195399761199951 10.758313179016113 3.195399761199951 0.0 0.0 38.34479522705078" Properties=species:S:1:pos:R:3:move_mask:L:1:tags:I:1:DFT_forces:R:3:forces:R:3:magmoms:R:1 DFT_energy=-209.76046388 energy=-209.76046388 dipole="_JSON [[0.0, 0.0, 0.0]]" magmom=0.0 free_energy=-209.75582176 pbc="T T T"
Sr      14.38984418       9.13821507      15.43932271  F        0       0.00000000       0.00000000       0.00000000       0.00185100      -0.00803700       0.05965100       0.00000000
Sr       4.80364490       9.13821507      12.24392247  F        0       0.00000000       0.00000000       0.00000000      -0.00168800       0.05903500       0.09381200       0.00000000
Sr       1.60824513       3.75905848      12.24392295  F        0       0.00000000       0.00000000       0.00000000       0.00544800      -0.06695200       0.16852200       0.00000000
Sr       4.80364490       3.75905848       9.04852271  F        0       0.00000000       0.00000000       0.00000000       0.01366900       0.21599100       0.14883300       0.00000000
Zn       3.20594478       6.44863701      10.64622283  F        0       0.00000000       0.00000000       0.00000000      -0.12443100      -0.22257400      -0.05763800       0.00000000
Zn       6.40134454       6.44863701      13.84162307  F        0       0.00000000       0.00000000       0.00000000      -0.02357800      -0.04476300       0.01470000       0.00000000
Zn       6.40134454       6.44863701      10.64622283  F        0       0.00000000       0.00000000       0.00000000       0.12038900      -0.23367300      -0.07826500       0.00000000
Zn       3.20594478       6.44863701      13.84162307  F        0       0.00000000       0.00000000       0.00000000       0.02184300      -0.05792800       0.02760100       0.00000000
Zn      12.79214430       1.06948018      10.64622283  F        0       0.00000000       0.00000000       0.00000000       0.00289300      -0.05574200      -0.01023500       0.00000000
Zn       3.20594478       1.06948018       7.45082259  F        0       0.00000000       0.00000000       0.00000000       0.03683000       0.03533700       0.11117500       0.00000000
Zn       3.20594478       1.06948018      10.64622283  F        0       0.00000000       0.00000000       0.00000000      -0.00986900      -0.05447400      -0.01620100       0.00000000
Zn      12.79214430       1.06948018       7.45082259  F        0       0.00000000       0.00000000       0.00000000      -0.05239700       0.04420400       0.09414600       0.00000000
Ge      14.38984418       7.83942986      12.24392295  F        0       0.00000000       0.00000000       0.00000000       0.00028800       0.12133000      -0.40498000       0.00000000
Ge       4.80364490       7.83942986      15.43932319  F        0       0.00000000       0.00000000       0.00000000      -0.02058700       0.05035300      -0.15029400       0.00000000
Ge       1.60824513       5.05784464       9.04852271  F        0       0.00000000       0.00000000       0.00000000      -0.00159500       0.37248700       0.09854900       0.00000000
Ge       4.80364490       5.05784464      12.24392295  F        0       0.00000000       0.00000000       0.00000000      -0.00954300       0.03480700       0.10990700       0.00000000
Ge       1.60824513       2.46027279       9.04852271  F        0       0.00000000       0.00000000       0.00000000      -0.00439500       0.44154900      -0.08965400       0.00000000
Ge       4.80364490       2.46027279      12.24392295  F        0       0.00000000       0.00000000       0.00000000       0.00133400       0.06029200      -0.02330200       0.00000000
Ge       4.80364490      10.43700087      15.43932271  F        0       0.00000000       0.00000000       0.00000000       0.00186800       0.00294700       0.03134500       0.00000000
Ge       7.99904466      10.43700087      12.24392247  F        0       0.00000000       0.00000000       0.00000000      -0.00156900      -0.17786000      -0.18527300       0.00000000
Sr      14.38398790       9.11785409      21.71024300  T        1      -0.00129000       0.00662200       0.00132700      -0.00129000       0.00662200       0.00132700       0.00000000
Sr       4.80364490       9.13821507      18.63472295  F        0       0.00000000       0.00000000       0.00000000      -0.01087800      -0.09792200      -0.27019500       0.00000000
Sr       1.60805179       3.52829778      18.67575560  T        1       0.00420300      -0.00604000      -0.00943800       0.00420300      -0.00604000      -0.00943800       0.00000000
Sr       4.80364490       3.75905848      15.43932319  F        0       0.00000000       0.00000000       0.00000000       0.00595000      -0.15970900       0.08918800       0.00000000
Zn       3.20594478       6.44863701      17.03702140  F        0       0.00000000       0.00000000       0.00000000      -0.03671800      -0.05233000       0.11354700       0.00000000
Zn       6.31539096       6.34516669      20.20168007  T        1      -0.04263200       0.01508400       0.00112600      -0.04263200       0.01508400       0.00112600       0.00000000
Zn       6.40134454       6.44863701      17.03702140  F        0       0.00000000       0.00000000       0.00000000      -0.02210500      -0.06623700       0.19405700       0.00000000
Zn       3.06110177       6.30518147      20.28664468  T        1      -0.00047000       0.00208300      -0.00168800      -0.00047000       0.00208300      -0.00168800       0.00000000
Zn      12.77767966       1.08009825      17.05119878  T        1       0.01400400      -0.01157100       0.00371900       0.01400400      -0.01157100       0.00371900       0.00000000
Zn       3.20594478       1.06948018      13.84162307  F        0       0.00000000       0.00000000       0.00000000      -0.01414300      -0.00717100       0.05209800       0.00000000
Zn       3.20005328       1.02225339      17.10200270  T        1      -0.00802600      -0.00308900       0.02037500      -0.00802600      -0.00308900       0.02037500       0.00000000
Zn      12.79214430       1.06948018      13.84162307  F        0       0.00000000       0.00000000       0.00000000      -0.00952100       0.01532200       0.05601600       0.00000000
Ge      14.38984418       7.83942986      18.63472152  F        0       0.00000000       0.00000000       0.00000000       0.00825500       0.23346700      -0.29409800       0.00000000
Ge       4.72635595       7.77368415      21.71823632  T        1       0.00251900      -0.01447600      -0.00800200       0.00251900      -0.01447600      -0.00800200       0.00000000
Ge       1.60824513       5.05784464      15.43932319  F        0       0.00000000       0.00000000       0.00000000       0.00426100      -0.17954400       0.06559600       0.00000000
Ge       4.68068237       4.94995549      18.64416745  T        1       0.02130400       0.00864800       0.00220200       0.02130400       0.00864800       0.00220200       0.00000000
Ge       1.60824513       2.46027279      15.43932319  F        0       0.00000000       0.00000000       0.00000000       0.02504800      -0.04208200      -0.02064000       0.00000000
Ge       4.78139793       2.38148727      18.66728219  T        1      -0.01093400      -0.00519500      -0.00525800      -0.01093400      -0.00519500      -0.00525800       0.00000000
Ge       4.76826400      10.28977067      21.75868310  T        1      -0.01816500      -0.00380500       0.01440300      -0.01816500      -0.00380500       0.01440300       0.00000000
Ge       7.99904466      10.43700087      18.63472295  F        0       0.00000000       0.00000000       0.00000000       0.02145300      -0.08780800       0.00174300       0.00000000
Sr       7.99904466       9.13821507      15.43932271  F        0       0.00000000       0.00000000       0.00000000      -0.00155000      -0.01433600       0.11598800       0.00000000
Sr      11.19444394       9.13821507      12.24392247  F        0       0.00000000       0.00000000       0.00000000       0.00153600       0.06081100       0.09225300       0.00000000
Sr       7.99904418       3.75905848      12.24392295  F        0       0.00000000       0.00000000       0.00000000      -0.00093100      -0.08069800       0.15231400       0.00000000
Sr      11.19444442       3.75905848       9.04852271  F        0       0.00000000       0.00000000       0.00000000      -0.00973800       0.20934800       0.15050600       0.00000000
Zn       9.59674430       6.44863701      10.64622283  F        0       0.00000000       0.00000000       0.00000000      -0.13016100      -0.24208200      -0.07414200       0.00000000
Zn      12.79214358       6.44863701      13.84162307  F        0       0.00000000       0.00000000       0.00000000      -0.02672600      -0.05315700       0.02396000       0.00000000
Zn      12.79214358       6.44863701      10.64622283  F        0       0.00000000       0.00000000       0.00000000       0.12845400      -0.22206200      -0.05249100       0.00000000
Zn       9.59674430       6.44863701      13.84162307  F        0       0.00000000       0.00000000       0.00000000       0.02094100      -0.03500200       0.01002000       0.00000000
Zn       6.40134454       1.06948018      10.64622283  F        0       0.00000000       0.00000000       0.00000000       0.00444000      -0.04542200      -0.01472600       0.00000000
Zn       9.59674430       1.06948018       7.45082259  F        0       0.00000000       0.00000000       0.00000000       0.04690000       0.04746900       0.08459000       0.00000000
Zn       9.59674430       1.06948018      10.64622283  F        0       0.00000000       0.00000000       0.00000000      -0.00819700      -0.04326600      -0.01115900       0.00000000
Zn       6.40134454       1.06948018       7.45082259  F        0       0.00000000       0.00000000       0.00000000      -0.03642200       0.03533800       0.10187600       0.00000000
Ge       7.99904418       7.83942986      12.24392295  F        0       0.00000000       0.00000000       0.00000000       0.00647500       0.12553600      -0.37301500       0.00000000
Ge      11.19444442       7.83942986      15.43932319  F        0       0.00000000       0.00000000       0.00000000       0.03563700       0.05244700      -0.15518200       0.00000000
Ge       7.99904418       5.05784464       9.04852271  F        0       0.00000000       0.00000000       0.00000000       0.00477100       0.38470800       0.09882900       0.00000000
Ge      11.19444442       5.05784464      12.24392295  F        0       0.00000000       0.00000000       0.00000000       0.00976100       0.02460100       0.10543400       0.00000000
Ge       7.99904418       2.46027279       9.04852271  F        0       0.00000000       0.00000000       0.00000000      -0.00514900       0.43095000      -0.08933200       0.00000000
Ge      11.19444442       2.46027279      12.24392295  F        0       0.00000000       0.00000000       0.00000000      -0.00241500       0.05591900      -0.05412500       0.00000000
Ge      11.19444394      10.43700087      15.43932271  F        0       0.00000000       0.00000000       0.00000000       0.00709400      -0.01870200       0.03547300       0.00000000
Ge      14.38984418      10.43700087      12.24392247  F        0       0.00000000       0.00000000       0.00000000       0.02168100      -0.19316900      -0.16172200       0.00000000
Sr       8.00269432       9.00426739      21.69319222  T        1       0.00058200       0.00419800       0.01078000       0.00058200       0.00419800       0.01078000       0.00000000
Sr      11.19444394       9.13821507      18.63472295  F        0       0.00000000       0.00000000       0.00000000       0.00883600      -0.06425600      -0.27400200       0.00000000
Sr       7.99109066       3.49323452      18.90873317  T        1       0.00458900      -0.00124200       0.00883100       0.00458900      -0.00124200       0.00883100       0.00000000
Sr      11.19444442       3.75905848      15.43932319  F        0       0.00000000       0.00000000       0.00000000       0.00076100      -0.09508700       0.04922700       0.00000000
Zn       9.59674430       6.44863701      17.03702140  F        0       0.00000000       0.00000000       0.00000000       0.01037100      -0.06639300       0.18808500       0.00000000
Zn      12.93291386       6.30849550      20.29086203  T        1       0.01339300       0.00526400       0.00675800       0.01339300       0.00526400       0.00675800       0.00000000
Zn      12.79214358       6.44863701      17.03702140  F        0       0.00000000       0.00000000       0.00000000       0.02736300      -0.06321300       0.11813700       0.00000000
Zn       9.67999998       6.35509902      20.20770180  T        1      -0.01653000      -0.03328500       0.02942800      -0.01653000      -0.03328500       0.02942800       0.00000000
Zn       6.39144113       1.04854589      17.12522669  T        1       0.00633000       0.00146400       0.00422200       0.00633000       0.00146400       0.00422200       0.00000000
Zn       9.59674430       1.06948018      13.84162307  F        0       0.00000000       0.00000000       0.00000000      -0.00297100       0.02457400       0.06194300       0.00000000
Zn       9.61380693       1.10824759      17.07454855  T        1      -0.01852700      -0.01791300      -0.00633400      -0.01852700      -0.01791300      -0.00633400       0.00000000
Zn       6.40134454       1.06948018      13.84162307  F        0       0.00000000       0.00000000       0.00000000       0.01626500       0.00286200       0.04985700       0.00000000
Ge       7.99904418       7.83942986      18.63472152  F        0       0.00000000       0.00000000       0.00000000       0.00556700       0.08484000      -0.30912900       0.00000000
Ge      11.27314500       7.77811053      21.72373834  T        1      -0.01482600      -0.00929600      -0.01348200      -0.01482600      -0.00929600      -0.01348200       0.00000000
Ge       7.99904418       5.05784464      15.43932319  F        0       0.00000000       0.00000000       0.00000000      -0.00304700      -0.20798600       0.23206400       0.00000000
Ge      11.31510630       4.95628392      18.66157254  T        1      -0.01252600       0.01607100      -0.00247200      -0.01252600       0.01607100      -0.00247200       0.00000000
Ge       7.99904418       2.46027279      15.43932319  F        0       0.00000000       0.00000000       0.00000000      -0.03357400      -0.06276800       0.04323200       0.00000000
Ge      11.21224963       2.39576464      18.64099786  T        1       0.01235400      -0.01009200      -0.02629200       0.01235400      -0.01009200      -0.02629200       0.00000000
Ge      11.21849800      10.29169116      21.74073617  T        1       0.01955900       0.00268100       0.00356200       0.01955900       0.00268100       0.00356200       0.00000000
Ge      14.38984418      10.43700087      18.63472295  F        0       0.00000000       0.00000000       0.00000000      -0.02142300      -0.04056500      -0.09259600       0.00000000
N        7.99364642       5.35795590      20.77110409  T        2       0.04082200      -0.01226500       0.00972300       0.04082200      -0.01226500       0.00972300       0.00000000
O        7.99328756       4.12751674      21.27494350  T        2       0.00135400       0.00259900      -0.02537100       0.00135400       0.00259900      -0.02537100       0.00000000
82
Lattice="12.781599044799805 0.0 -2.0554378901363078e-15 3.195399761199951 10.758313179016113 3.195399761199951 0.0 0.0 38.34479522705078" Properties=species:S:1:pos:R:3:move_mask:L:1:tags:I:1:DFT_forces:R:3:forces:R:3 DFT_energy=-209.35823793 energy=-209.35823793 pbc="T T T"
Sr      14.38984418       9.13821507      15.43932271  F        0       0.00000000       0.00000000       0.00000000       0.00000000       0.00000000       0.00000000
Sr       4.80364490       9.13821507      12.24392247  F        0       0.00000000       0.00000000       0.00000000       0.00000000       0.00000000       0.00000000
Sr       1.60824513       3.75905848      12.24392295  F        0       0.00000000       0.00000000       0.00000000       0.00000000       0.00000000       0.00000000
Sr       4.80364490       3.75905848       9.04852271  F        0       0.00000000       0.00000000       0.00000000       0.00000000       0.00000000       0.00000000
Zn       3.20594478       6.44863701      10.64622283  F        0       0.00000000       0.00000000       0.00000000       0.00000000       0.00000000       0.00000000
Zn       6.40134454       6.44863701      13.84162307  F        0       0.00000000       0.00000000       0.00000000       0.00000000       0.00000000       0.00000000
Zn       6.40134454       6.44863701      10.64622283  F        0       0.00000000       0.00000000       0.00000000       0.00000000       0.00000000       0.00000000
Zn       3.20594478       6.44863701      13.84162307  F        0       0.00000000       0.00000000       0.00000000       0.00000000       0.00000000       0.00000000
Zn      12.79214430       1.06948018      10.64622283  F        0       0.00000000       0.00000000       0.00000000       0.00000000       0.00000000       0.00000000
Zn       3.20594478       1.06948018       7.45082259  F        0       0.00000000       0.00000000       0.00000000       0.00000000       0.00000000       0.00000000
Zn       3.20594478       1.06948018      10.64622283  F        0       0.00000000       0.00000000       0.00000000       0.00000000       0.00000000       0.00000000
Zn      12.79214430       1.06948018       7.45082259  F        0       0.00000000       0.00000000       0.00000000       0.00000000       0.00000000       0.00000000
Ge      14.38984418       7.83942986      12.24392295  F        0       0.00000000       0.00000000       0.00000000       0.00000000       0.00000000       0.00000000
Ge       4.80364490       7.83942986      15.43932319  F        0       0.00000000       0.00000000       0.00000000       0.00000000       0.00000000       0.00000000
Ge       1.60824513       5.05784464       9.04852271  F        0       0.00000000       0.00000000       0.00000000       0.00000000       0.00000000       0.00000000
Ge       4.80364490       5.05784464      12.24392295  F        0       0.00000000       0.00000000       0.00000000       0.00000000       0.00000000       0.00000000
Ge       1.60824513       2.46027279       9.04852271  F        0       0.00000000       0.00000000       0.00000000       0.00000000       0.00000000       0.00000000
Ge       4.80364490       2.46027279      12.24392295  F        0       0.00000000       0.00000000       0.00000000       0.00000000       0.00000000       0.00000000
Ge       4.80364490      10.43700087      15.43932271  F        0       0.00000000       0.00000000       0.00000000       0.00000000       0.00000000       0.00000000
Ge       7.99904466      10.43700087      12.24392247  F        0       0.00000000       0.00000000       0.00000000       0.00000000       0.00000000       0.00000000
Sr      14.32789778       9.12858067      21.70696135  T        1      -0.00108100      -0.01562500      -0.00282900      -0.00108100      -0.01562500      -0.00282900
Sr       4.80364490       9.13821507      18.63472295  F        0       0.00000000       0.00000000       0.00000000       0.00000000       0.00000000       0.00000000
Sr       1.60312292       3.47555173      18.66682955  T        1       0.00937400      -0.00051200       0.00452300       0.00937400      -0.00051200       0.00452300
Sr       4.80364490       3.75905848      15.43932319  F        0       0.00000000       0.00000000       0.00000000       0.00000000       0.00000000       0.00000000
Zn       3.20594478       6.44863701      17.03702140  F        0       0.00000000       0.00000000       0.00000000       0.00000000       0.00000000       0.00000000
Zn       6.25283886       6.35470098      20.02097096  T        1      -0.01154200       0.03038100       0.05029600      -0.01154200       0.03038100       0.05029600
Zn       6.40134454       6.44863701      17.03702140  F        0       0.00000000       0.00000000       0.00000000       0.00000000       0.00000000       0.00000000
Zn       3.01837992       6.26234500      20.26629908  T        1      -0.01247600      -0.00440200      -0.00207200      -0.01247600      -0.00440200      -0.00207200
Zn      12.78111571       1.06841715      17.02943994  T        1      -0.00648600       0.00118500       0.00432500      -0.00648600       0.00118500       0.00432500
Zn       3.20594478       1.06948018      13.84162307  F        0       0.00000000       0.00000000       0.00000000       0.00000000       0.00000000       0.00000000
Zn       3.24451719       0.97013468      17.13911369  T        1       0.00067500       0.00494200      -0.00490400       0.00067500       0.00494200      -0.00490400
Zn      12.79214430       1.06948018      13.84162307  F        0       0.00000000       0.00000000       0.00000000       0.00000000       0.00000000       0.00000000
Ge      14.38984418       7.83942986      18.63472152  F        0       0.00000000       0.00000000       0.00000000       0.00000000       0.00000000       0.00000000
Ge       4.62711797       7.76461970      21.68549004  T        1      -0.00324900       0.00744700      -0.01493100      -0.00324900       0.00744700      -0.01493100
Ge       1.60824513       5.05784464      15.43932319  F        0       0.00000000       0.00000000       0.00000000       0.00000000       0.00000000       0.00000000
Ge       4.63329082       4.90325522      18.62180231  T        1       0.00554100      -0.00006600      -0.00818400       0.00554100      -0.00006600      -0.00818400
Ge       1.60824513       2.46027279      15.43932319  F        0       0.00000000       0.00000000       0.00000000       0.00000000       0.00000000       0.00000000
Ge       4.80459887       2.35414050      18.70146271  T        1       0.00155900       0.00531500      -0.01371900       0.00155900       0.00531500      -0.01371900
Ge       4.74778968      10.26300423      21.76712539  T        1      -0.00595800       0.01759800       0.00542900      -0.00595800       0.01759800       0.00542900
Ge       7.99904466      10.43700087      18.63472295  F        0       0.00000000       0.00000000       0.00000000       0.00000000       0.00000000       0.00000000
Sr       7.99904466       9.13821507      15.43932271  F        0       0.00000000       0.00000000       0.00000000       0.00000000       0.00000000       0.00000000
Sr      11.19444394       9.13821507      12.24392247  F        0       0.00000000       0.00000000       0.00000000       0.00000000       0.00000000       0.00000000
Sr       7.99904418       3.75905848      12.24392295  F        0       0.00000000       0.00000000       0.00000000       0.00000000       0.00000000       0.00000000
Sr      11.19444442       3.75905848       9.04852271  F        0       0.00000000       0.00000000       0.00000000       0.00000000       0.00000000       0.00000000
Zn       9.59674430       6.44863701      10.64622283  F        0       0.00000000       0.00000000       0.00000000       0.00000000       0.00000000       0.00000000
Zn      12.79214358       6.44863701      13.84162307  F        0       0.00000000       0.00000000       0.00000000       0.00000000       0.00000000       0.00000000
Zn      12.79214358       6.44863701      10.64622283  F        0       0.00000000       0.00000000       0.00000000       0.00000000       0.00000000       0.00000000
Zn       9.59674430       6.44863701      13.84162307  F        0       0.00000000       0.00000000       0.00000000       0.00000000       0.00000000       0.00000000
Zn       6.40134454       1.06948018      10.64622283  F        0       0.00000000       0.00000000       0.00000000       0.00000000       0.00000000       0.00000000
Zn       9.59674430       1.06948018       7.45082259  F        0       0.00000000       0.00000000       0.00000000       0.00000000       0.00000000       0.00000000
Zn       9.59674430       1.06948018      10.64622283  F        0       0.00000000       0.00000000       0.00000000       0.00000000       0.00000000       0.00000000
Zn       6.40134454       1.06948018       7.45082259  F        0       0.00000000       0.00000000       0.00000000       0.00000000       0.00000000       0.00000000
Ge       7.99904418       7.83942986      12.24392295  F        0       0.00000000       0.00000000       0.00000000       0.00000000       0.00000000       0.00000000
Ge      11.19444442       7.83942986      15.43932319  F        0       0.00000000       0.00000000       0.00000000       0.00000000       0.00000000       0.00000000
Ge       7.99904418       5.05784464       9.04852271  F        0       0.00000000       0.00000000       0.00000000       0.00000000       0.00000000       0.00000000
Ge      11.19444442       5.05784464      12.24392295  F        0       0.00000000       0.00000000       0.00000000       0.00000000       0.00000000       0.00000000
Ge       7.99904418       2.46027279       9.04852271  F        0       0.00000000       0.00000000       0.00000000       0.00000000       0.00000000       0.00000000
Ge      11.19444442       2.46027279      12.24392295  F        0       0.00000000       0.00000000       0.00000000       0.00000000       0.00000000       0.00000000
Ge      11.19444394      10.43700087      15.43932271  F        0       0.00000000       0.00000000       0.00000000       0.00000000       0.00000000       0.00000000
Ge      14.38984418      10.43700087      12.24392247  F        0       0.00000000       0.00000000       0.00000000       0.00000000       0.00000000       0.00000000
Sr       7.96334645       8.58449790      21.86431647  T        1       0.00346100      -0.00489100      -0.02453600       0.00346100      -0.00489100      -0.02453600
Sr      11.19444394       9.13821507      18.63472295  F        0       0.00000000       0.00000000       0.00000000       0.00000000       0.00000000       0.00000000
Sr       7.98128262       3.60155996      19.04236449  T        1      -0.00096700       0.04233600      -0.02229000      -0.00096700       0.04233600      -0.02229000
Sr      11.19444442       3.75905848      15.43932319  F        0       0.00000000       0.00000000       0.00000000       0.00000000       0.00000000       0.00000000
Zn       9.59674430       6.44863701      17.03702140  F        0       0.00000000       0.00000000       0.00000000       0.00000000       0.00000000       0.00000000
Zn      12.93946160       6.27527569      20.26992083  T        1       0.00622600      -0.00711900      -0.00274700       0.00622600      -0.00711900      -0.00274700
Zn      12.79214358       6.44863701      17.03702140  F        0       0.00000000       0.00000000       0.00000000       0.00000000       0.00000000       0.00000000
Zn       9.71707005       6.25278462      20.12139869  T        1       0.01096100       0.01690400      -0.02476600       0.01096100       0.01690400      -0.02476600
Zn       6.39041583       1.01863416      17.15318841  T        1       0.00238100      -0.00017800       0.00380500       0.00238100      -0.00017800       0.00380500
Zn       9.59674430       1.06948018      13.84162307  F        0       0.00000000       0.00000000       0.00000000       0.00000000       0.00000000       0.00000000
Zn       9.55230814       1.08175520      17.07704862  T        1      -0.00354500      -0.00712500       0.00572300      -0.00354500      -0.00712500       0.00572300
Zn       6.40134454       1.06948018      13.84162307  F        0       0.00000000       0.00000000       0.00000000       0.00000000       0.00000000       0.00000000
Ge       7.99904418       7.83942986      18.63472152  F        0       0.00000000       0.00000000       0.00000000       0.00000000       0.00000000       0.00000000
Ge      11.25777108       7.71590671      21.65277330  T        1       0.01052000      -0.00409900      -0.00082100       0.01052000      -0.00409900      -0.00082100
Ge       7.99904418       5.05784464      15.43932319  F        0       0.00000000       0.00000000       0.00000000       0.00000000       0.00000000       0.00000000
Ge      11.34737469       4.90686239      18.62866878  T        1       0.01533500      -0.00680300      -0.01573300       0.01533500      -0.00680300      -0.01573300
Ge       7.99904418       2.46027279      15.43932319  F        0       0.00000000       0.00000000       0.00000000       0.00000000       0.00000000       0.00000000
Ge      11.19106783       2.35516589      18.60469390  T        1      -0.00334700      -0.00198800      -0.00322500      -0.00334700      -0.00198800      -0.00322500
Ge      11.18798043      10.23845604      21.76352090  T        1      -0.00567100      -0.00875600       0.00173500      -0.00567100      -0.00875600       0.00173500
Ge      14.38984418      10.43700087      18.63472295  F        0       0.00000000       0.00000000       0.00000000       0.00000000       0.00000000       0.00000000
N        7.98284681       5.31796918      20.77413202  T        2       0.00577900       0.04237800      -0.00474100       0.00577900       0.04237800      -0.00474100
O        7.56153829       6.15018047      21.82349223  T        2       0.10088300      -0.02532600       0.04106000       0.10088300      -0.02532600       0.04106000
82
Lattice="12.781599044799805 0.0 -2.0554378901363078e-15 3.195399761199951 10.758313179016113 3.195399761199951 0.0 0.0 38.34479522705078" Properties=species:S:1:pos:R:3:move_mask:L:1:tags:I:1:DFT_forces:R:3:forces:R:3 DFT_energy=-209.29015731 energy=-209.29015731 pbc="T T T"