75
Lattice="9.37498664855957 0.0 5.740523866230461e-16 -3.124995470046997 15.124268531799316 9.456562755557891e-16 0.0 0.0 29.769580841064453" Properties=species:S:1:pos:R:3:move_mask:L:1:tags:I:1:DFT_forces:R:3:forces:R:3:magmoms:R:1 DFT_energy=-57.80929444 energy=-57.80929444 dipole="_JSON [[0.0, 0.0, 0.0]]" magmom=0.0 free_energy=-57.81625382 pbc="T T T"
Zn       4.48310691       8.98550344       6.37791348  F        0       0.00000000       0.00000000       0.00000000       0.00740000      -0.03772600       0.01432700       0.00000000
Zn       2.13936025       8.98550344       7.73107624  F        0       0.00000000       0.00000000       0.00000000       0.00105700       0.00731500      -0.36519800       0.00000000
Zn       2.13936025      14.02178693       7.73107624  F        0       0.00000000       0.00000000       0.00000000      -0.14897000       0.01458500      -0.35623000       0.00000000
Zn       4.48310691      14.02178693       6.37791348  F        0       0.00000000       0.00000000       0.00000000      -0.20564600       0.05911900       0.04260100       0.00000000
Zn       2.92060912      11.51135421       6.37791348  F        0       0.00000000       0.00000000       0.00000000       0.21530100      -0.02969000       0.04903600       0.00000000
Zn       5.26435572      11.51135421       7.73107624  F        0       0.00000000       0.00000000       0.00000000       0.13723300       0.03040100      -0.33157100       0.00000000
Zn       4.48310691       8.98550344       9.08423901  F        0       0.00000000       0.00000000       0.00000000      -0.01782500      -0.02387300       0.20075600       0.00000000
Zn       2.13936025       8.98550344      10.43740177  F        0       0.00000000       0.00000000       0.00000000      -0.09660900      -0.08702800       0.18367200       0.00000000
Zn       2.13936025      14.02178693      10.43740177  F        0       0.00000000       0.00000000       0.00000000      -0.26952500      -0.05684800       0.08596200       0.00000000
Zn       4.48310691      14.02178693       9.08423901  F        0       0.00000000       0.00000000       0.00000000      -0.08646000       0.05976300       0.33114400       0.00000000
Zn       2.92060912      11.51135421       9.08423901  F        0       0.00000000       0.00000000       0.00000000       0.07586000       0.00244000       0.34893000       0.00000000
Zn       5.26435572      11.51135421      10.43740177  F        0       0.00000000       0.00000000       0.00000000       0.32754900       0.00068100      -0.00045600       0.00000000
Zn       4.41482523       9.04163700      11.85734324  T        1       0.00025500      -0.00563400      -0.00619700       0.00025500      -0.00563400      -0.00619700       0.00000000
Zn       1.99768061       9.68984084      13.05042261  T        1      -0.00114200      -0.00689900       0.00817600      -0.00114200      -0.00689900       0.00817600       0.00000000
Zn       1.90627695      14.72160012      13.20047303  T        1      -0.00115100       0.00254000      -0.00994700      -0.00115100       0.00254000      -0.00994700       0.00000000
Zn       4.27043833      14.38823197      12.00060241  T        1      -0.00520400      -0.00344800      -0.00661300      -0.00520400      -0.00344800      -0.00661300       0.00000000
Zn       3.18855244      11.79395392      11.99044440  T        1      -0.00086800      -0.01344000       0.00446800      -0.00086800      -0.01344000       0.00446800       0.00000000
Zn       5.54190825      12.26323083      13.10029220  T        1       0.00220500       0.00499300       0.00945900       0.00220500       0.00499300       0.00945900       0.00000000
Zn       6.04560459       1.42336917       6.37791348  F        0       0.00000000       0.00000000       0.00000000       0.01799700       0.00901200      -0.00784500       0.00000000
Zn       3.70185798       1.42336917       7.73107624  F        0       0.00000000       0.00000000       0.00000000      -0.00448500       0.01602100      -0.34494200       0.00000000
Zn       3.70185798       6.45965314       7.73107624  F        0       0.00000000       0.00000000       0.00000000      -0.11610600      -0.02632900      -0.33176500       0.00000000
Zn       6.04560459       6.45965314       6.37791348  F        0       0.00000000       0.00000000       0.00000000      -0.22761300       0.02892300       0.02040800       0.00000000
Zn       4.48310685       3.94921994       6.37791348  F        0       0.00000000       0.00000000       0.00000000       0.21071500      -0.02693000       0.02183800       0.00000000
Zn       6.82685345       3.94921994       7.73107624  F        0       0.00000000       0.00000000       0.00000000       0.12838100       0.02332400      -0.34194700       0.00000000
Zn       6.04560459       1.42336917       9.08423901  F        0       0.00000000       0.00000000       0.00000000      -0.00694600       0.01058800       0.26313800       0.00000000
Zn       3.70185798       1.42336917      10.43740177  F        0       0.00000000       0.00000000       0.00000000       0.02598100      -0.00201700       0.07283000       0.00000000
Zn       3.70185798       6.45965314      10.43740177  F        0       0.00000000       0.00000000       0.00000000      -0.17899300       0.03992000       0.17808000       0.00000000
Zn       6.04560459       6.45965314       9.08423901  F        0       0.00000000       0.00000000       0.00000000      -0.13124200       0.00569400       0.32392000       0.00000000
Zn       4.48310685       3.94921994       9.08423901  F        0       0.00000000       0.00000000       0.00000000       0.09822200       0.05746800       0.32992900       0.00000000
Zn       6.82685345       3.94921994      10.43740177  F        0       0.00000000       0.00000000       0.00000000       0.27915100       0.08291300       0.03070000       0.00000000
Zn       6.04061671       1.76676854      11.96794371  T        1       0.00347000       0.00169400       0.00134100       0.00347000       0.00169400       0.00134100       0.00000000
Zn       3.68486121       1.90465808      13.22266552  T        1      -0.00330400       0.00433800      -0.00276500      -0.00330400       0.00433800      -0.00276500       0.00000000
Zn       3.61860226       6.53660312      13.19001775  T        1       0.00316900      -0.00142100      -0.00675000       0.00316900      -0.00142100      -0.00675000       0.00000000
Zn       5.99081830       6.68081318      11.99180285  T        1      -0.00454300      -0.00578600      -0.00762200      -0.00454300      -0.00578600      -0.00762200       0.00000000
Zn       4.65216504       4.23626478      11.98111161  T        1      -0.00131500      -0.00969700       0.00786200      -0.00131500      -0.00969700       0.00786200       0.00000000
Zn       7.01109933       4.20451243      13.24892605  T        1      -0.00024300      -0.00331800      -0.01068600      -0.00024300      -0.00331800      -0.01068600       0.00000000
Zn      -0.20438641       8.98550344       6.37791348  F        0       0.00000000       0.00000000       0.00000000       0.01870200      -0.04234100       0.04066000       0.00000000
Zn       6.82685357       8.98550344       7.73107624  F        0       0.00000000       0.00000000       0.00000000      -0.01368400      -0.01356500      -0.37255900       0.00000000
Zn      -2.54813308      14.02178693       7.73107624  F        0       0.00000000       0.00000000       0.00000000      -0.15192900       0.02265200      -0.37219400       0.00000000
Zn      -0.20438641      14.02178693       6.37791348  F        0       0.00000000       0.00000000       0.00000000      -0.21892300       0.05659700       0.00140500       0.00000000
Zn      -1.76688403      11.51135421       6.37791348  F        0       0.00000000       0.00000000       0.00000000       0.21781700      -0.00473100       0.04378700       0.00000000
Zn       0.57686263      11.51135421       7.73107624  F        0       0.00000000       0.00000000       0.00000000       0.14310700       0.02065700      -0.34123900       0.00000000
Zn      -0.20438641       8.98550344       9.08423901  F        0       0.00000000       0.00000000       0.00000000       0.00684800       0.02164300       0.35780000       0.00000000
Zn       6.82685357       8.98550344      10.43740177  F        0       0.00000000       0.00000000       0.00000000       0.04554000      -0.11833700      -0.05925000       0.00000000
Zn      -2.54813308      14.02178693      10.43740177  F        0       0.00000000       0.00000000       0.00000000      -0.32570100       0.03081000       0.08288000       0.00000000
Zn      -0.20438641      14.02178693       9.08423901  F        0       0.00000000       0.00000000       0.00000000      -0.08428100       0.06947100       0.31612400       0.00000000
Zn      -1.76688403      11.51135421       9.08423901  F        0       0.00000000       0.00000000       0.00000000       0.09079400      -0.00172200       0.34771700       0.00000000
Zn       0.57686263      11.51135421      10.43740177  F        0       0.00000000       0.00000000       0.00000000       0.25333000      -0.09589000      -0.04932500       0.00000000
Zn      -0.30325149       8.93103629      12.01990326  T        1      -0.00663500      -0.00668400       0.00201200      -0.00663500      -0.00668400       0.00201200       0.00000000
Zn       6.68090828       9.83402990      12.93003233  T        1       0.00472200      -0.00319600       0.00360300       0.00472200      -0.00319600       0.00360300       0.00000000
Zn      -2.80974448      14.69659647      13.23958459  T        1      -0.00321800      -0.00282200       0.00937600      -0.00321800      -0.00282200       0.00937600       0.00000000
Zn      -0.41549032      14.44995786      12.03149227  T        1      -0.01062700       0.00369400       0.01299100      -0.01062700       0.00369400       0.01299100       0.00000000
Zn      -1.50722528      11.97379710      11.97278315  T        1      -0.00959200      -0.00748700      -0.00050800      -0.00959200      -0.00748700      -0.00050800       0.00000000
Zn       0.88263414      12.25429265      13.02012730  T        1       0.00707700       0.01386800       0.00519200       0.00707700       0.01386800       0.00519200       0.00000000
Zn       1.35811144       1.42336917       6.37791348  F        0       0.00000000       0.00000000       0.00000000      -0.02427600      -0.02538700      -0.00561200       0.00000000
Zn       8.38935119       1.42336917       7.73107624  F        0       0.00000000       0.00000000       0.00000000      -0.01933700      -0.00628500      -0.39797200       0.00000000
Zn      -0.98563546       6.45965314       7.73107624  F        0       0.00000000       0.00000000       0.00000000      -0.12537700      -0.02149500      -0.32626900       0.00000000
Zn       1.35811144       6.45965314       6.37791348  F        0       0.00000000       0.00000000       0.00000000      -0.21818200       0.02139300       0.00961000       0.00000000
Zn      -0.20438641       3.94921994       6.37791348  F        0       0.00000000       0.00000000       0.00000000       0.23693900      -0.05512500       0.05028000       0.00000000
Zn       2.13936001       3.94921994       7.73107624  F        0       0.00000000       0.00000000       0.00000000       0.15586900       0.01275300      -0.38250900       0.00000000
Zn       1.35811144       1.42336917       9.08423901  F        0       0.00000000       0.00000000       0.00000000      -0.01360400      -0.01920400       0.25977700       0.00000000
Zn       8.38935119       1.42336917      10.43740177  F        0       0.00000000       0.00000000       0.00000000       0.01962800       0.01164100       0.12970300       0.00000000
Zn      -0.98563546       6.45965314      10.43740177  F        0       0.00000000       0.00000000       0.00000000      -0.25630400      -0.01588900      -0.05255600       0.00000000
Zn       1.35811144       6.45965314       9.08423901  F        0       0.00000000       0.00000000       0.00000000      -0.10822000       0.04592700       0.23675300       0.00000000
Zn      -0.20438641       3.94921994       9.08423901  F        0       0.00000000       0.00000000       0.00000000       0.07244100       0.00692300       0.21270700       0.00000000
Zn       2.13936001       3.94921994      10.43740177  F        0       0.00000000       0.00000000       0.00000000       0.30729900      -0.03110200      -0.17751200       0.00000000
Zn       1.34353171       1.71740131      11.98662453  T        1      -0.01390500       0.00810000       0.00457900      -0.01390500       0.00810000       0.00457900       0.00000000
Zn       8.34937173       1.86265334      13.27350528  T        1       0.00129500       0.00373000       0.01519800       0.00129500       0.00373000       0.01519800       0.00000000
Zn      -1.05319539       6.48707017      13.15525330  T        1       0.00052700      -0.00079500      -0.00089000       0.00052700      -0.00079500      -0.00089000       0.00000000
Zn       1.30751960       6.51291902      11.86860386  T        1      -0.00572400       0.00478100       0.01070100      -0.00572400       0.00478100       0.01070100       0.00000000
Zn      -0.09923543       4.08965433      11.90284860  T        1      -0.00719400      -0.01512600      -0.00388200      -0.00719400      -0.01512600      -0.00388200       0.00000000
Zn       2.29199756       4.16933746      13.13729439  T        1      -0.01022000       0.00203400      -0.01028300      -0.01022000       0.00203400      -0.01028300       0.00000000
C        3.13438690       7.56784750      14.88642023  T        2       0.01821600       0.01689700      -0.00667500       0.01821600       0.01689700      -0.00667500       0.00000000
H        3.34439810       7.15703304      15.91276147  T        2       0.00479500       0.00103800       0.01329900       0.00479500       0.00103800       0.01329900       0.00000000
O        2.52498096       8.66757689      14.89771108  T        2      -0.00377300      -0.00907800      -0.00496200      -0.00377300      -0.00907800      -0.00496200       0.00000000
75
Lattice="9.37498664855957 0.0 5.740523866230461e-16 -3.124995470046997 15.124268531799316 9.456562755557891e-16 0.0 0.0 29.769580841064453" Properties=species:S:1:pos:R:3:move_mask:L:1:tags:I:1:DFT_forces:R:3:forces:R:3 DFT_energy=-57.20682574 energy=-57.20682574 pbc="T T T"
Zn       4.48310691       8.98550344       6.37791348  F        0       0.00000000       0.00000000       0.00000000       0.00000000       0.00000000       0.00000000
Zn       2.13936025       8.98550344       7.73107624  F        0       0.00000000       0.00000000       0.00000000       0.00000000       0.00000000       0.00000000
Zn       2.13936025      14.02178693       7.73107624  F        0       0.00000000       0.00000000       0.00000000       0.00000000       0.00000000       0.00000000
Zn       4.48310691      14.02178693       6.37791348  F        0       0.00000000       0.00000000       0.00000000       0.00000000       0.00000000       0.00000000
Zn       2.92060912      11.51135421       6.37791348  F        0       0.00000000       0.00000000       0.00000000       0.00000000       0.00000000       0.00000000
Zn       5.26435572      11.51135421       7.73107624  F        0       0.00000000       0.00000000       0.00000000       0.00000000       0.00000000       0.00000000
Zn       4.48310691       8.98550344       9.08423901  F        0       0.00000000       0.00000000       0.00000000       0.00000000       0.00000000       0.00000000
Zn       2.13936025       8.98550344      10.43740177  F        0       0.00000000       0.00000000       0.00000000       0.00000000       0.00000000       0.00000000
Zn       2.13936025      14.02178693      10.43740177  F        0       0.00000000       0.00000000       0.00000000       0.00000000       0.00000000       0.00000000
Zn       4.48310691      14.02178693       9.08423901  F        0       0.00000000       0.00000000       0.00000000       0.00000000       0.00000000       0.00000000
Zn       2.92060912      11.51135421       9.08423901  F        0       0.00000000       0.00000000       0.00000000       0.00000000       0.00000000       0.00000000
Zn       5.26435572      11.51135421      10.43740177  F        0       0.00000000       0.00000000       0.00000000       0.00000000       0.00000000       0.00000000
Zn       4.49217734       9.19528355      11.65507033  T        1       0.00706200       0.09262200      -0.03621300       0.00706200       0.09262200      -0.03621300
Zn       2.17840223       9.60936688      13.43353653  T        1       0.01417800      -0.05126100       0.00413800       0.01417800      -0.05126100       0.00413800
Zn       1.65528482      14.62365659      13.14254959  T        1      -0.01213900       0.00090600      -0.00080000      -0.01213900       0.00090600      -0.00080000
Zn       4.15594401      14.28860234      12.17467006  T        1      -0.00348600       0.01955000      -0.00458800      -0.00348600       0.01955000      -0.00458800
Zn       3.00494251      11.77265643      11.85746453  T        1      -0.00034000      -0.00720700       0.00067200      -0.00034000      -0.00720700       0.00067200
Zn       5.35087071      11.84748749      13.11505099  T        1      -0.00253900       0.10901300      -0.01914200      -0.00253900       0.10901300      -0.01914200
Zn       6.04560459       1.42336917       6.37791348  F        0       0.00000000       0.00000000       0.00000000       0.00000000       0.00000000       0.00000000
Zn       3.70185798       1.42336917       7.73107624  F        0       0.00000000       0.00000000       0.00000000       0.00000000       0.00000000       0.00000000
Zn       3.70185798       6.45965314       7.73107624  F        0       0.00000000       0.00000000       0.00000000       0.00000000       0.00000000       0.00000000
Zn       6.04560459       6.45965314       6.37791348  F        0       0.00000000       0.00000000       0.00000000       0.00000000       0.00000000       0.00000000
Zn       4.48310685       3.94921994       6.37791348  F        0       0.00000000       0.00000000       0.00000000       0.00000000       0.00000000       0.00000000
Zn       6.82685345       3.94921994       7.73107624  F        0       0.00000000       0.00000000       0.00000000       0.00000000       0.00000000       0.00000000
Zn       6.04560459       1.42336917       9.08423901  F        0       0.00000000       0.00000000       0.00000000       0.00000000       0.00000000       0.00000000
Zn       3.70185798       1.42336917      10.43740177  F        0       0.00000000       0.00000000       0.00000000       0.00000000       0.00000000       0.00000000
Zn       3.70185798       6.45965314      10.43740177  F        0       0.00000000       0.00000000       0.00000000       0.00000000       0.00000000       0.00000000
Zn       6.04560459       6.45965314       9.08423901  F        0       0.00000000       0.00000000       0.00000000       0.00000000       0.00000000       0.00000000
Zn       4.48310685       3.94921994       9.08423901  F        0       0.00000000       0.00000000       0.00000000       0.00000000       0.00000000       0.00000000
Zn       6.82685345       3.94921994      10.43740177  F        0       0.00000000       0.00000000       0.00000000       0.00000000       0.00000000       0.00000000
Zn       6.00954854       1.64502004      12.01997220  T        1      -0.00200200      -0.00837700      -0.00012000      -0.00200200      -0.00837700      -0.00012000
Zn       3.58648266       1.95974319      13.17601245  T        1      -0.01042300       0.00332800       0.00221200      -0.01042300       0.00332800       0.00221200
Zn       3.57251400       6.78787575      13.27122756  T        1      -0.02464300       0.01441900       0.01958200      -0.02464300       0.01441900       0.01958200
Zn       5.97143415       6.41480368      11.87067187  T        1      -0.01169800      -0.02791200       0.00127600      -0.01169800      -0.02791200       0.00127600
Zn       4.65683545       4.12104429      11.98489084  T        1      -0.00361700      -0.02398000      -0.01445900      -0.00361700      -0.02398000      -0.01445900
Zn       7.06533212       3.95749864      13.21853423  T        1      -0.00636000      -0.01016700       0.00098400      -0.00636000      -0.01016700       0.00098400
Zn      -0.20438641       8.98550344       6.37791348  F        0       0.00000000       0.00000000       0.00000000       0.00000000       0.00000000       0.00000000
Zn       6.82685357       8.98550344       7.73107624  F        0       0.00000000       0.00000000       0.00000000       0.00000000       0.00000000       0.00000000
Zn      -2.54813308      14.02178693       7.73107624  F        0       0.00000000       0.00000000       0.00000000       0.00000000       0.00000000       0.00000000
Zn      -0.20438641      14.02178693       6.37791348  F        0       0.00000000       0.00000000       0.00000000       0.00000000       0.00000000       0.00000000
Zn      -1.76688403      11.51135421       6.37791348  F        0       0.00000000       0.00000000       0.00000000       0.00000000       0.00000000       0.00000000
Zn       0.57686263      11.51135421       7.73107624  F        0       0.00000000       0.00000000       0.00000000       0.00000000       0.00000000       0.00000000
Zn      -0.20438641       8.98550344       9.08423901  F        0       0.00000000       0.00000000       0.00000000       0.00000000       0.00000000       0.00000000
Zn       6.82685357       8.98550344      10.43740177  F        0       0.00000000       0.00000000       0.00000000       0.00000000       0.00000000       0.00000000
Zn      -2.54813308      14.02178693      10.43740177  F        0       0.00000000       0.00000000       0.00000000       0.00000000       0.00000000       0.00000000
Zn      -0.20438641      14.02178693       9.08423901  F        0       0.00000000       0.00000000       0.00000000       0.00000000       0.00000000       0.00000000
Zn      -1.76688403      11.51135421       9.08423901  F        0       0.00000000       0.00000000       0.00000000       0.00000000       0.00000000       0.00000000
Zn       0.57686263      11.51135421      10.43740177  F        0       0.00000000       0.00000000       0.00000000       0.00000000       0.00000000       0.00000000
Zn      -0.08234161       9.03029249      12.10632798  T        1      -0.01374000      -0.01165600       0.01332400      -0.01374000      -0.01165600       0.01332400
Zn       6.92132786       8.64048347      13.19170249  T        1      -0.02356900      -0.04043600      -0.01708300      -0.02356900      -0.04043600      -0.01708300
Zn      -2.82414105      14.22150446      13.19120957  T        1       0.00812200       0.06700600       0.00165700       0.00812200       0.06700600       0.00165700
Zn      -0.46716762      13.83776432      11.96300553  T        1      -0.00426900      -0.00725400      -0.00094600      -0.00426900      -0.00725400      -0.00094600
Zn      -1.71533313      11.31137340      11.97767809  T        1      -0.00053000      -0.03715000       0.03604300      -0.00053000      -0.03715000       0.03604300
Zn       0.73007136      11.78627368      13.15521597  T        1       0.01118700      -0.01848800      -0.00655200       0.01118700      -0.01848800      -0.00655200
Zn       1.35811144       1.42336917       6.37791348  F        0       0.00000000       0.00000000       0.00000000       0.00000000       0.00000000       0.00000000
Zn       8.38935119       1.42336917       7.73107624  F        0       0.00000000       0.00000000       0.00000000       0.00000000       0.00000000       0.00000000
Zn      -0.98563546       6.45965314       7.73107624  F        0       0.00000000       0.00000000       0.00000000       0.00000000       0.00000000       0.00000000
Zn       1.35811144       6.45965314       6.37791348  F        0       0.00000000       0.00000000       0.00000000       0.00000000       0.00000000       0.00000000
Zn      -0.20438641       3.94921994       6.37791348  F        0       0.00000000       0.00000000       0.00000000       0.00000000       0.00000000       0.00000000
Zn       2.13936001       3.94921994       7.73107624  F        0       0.00000000       0.00000000       0.00000000       0.00000000       0.00000000       0.00000000
Zn       1.35811144       1.42336917       9.08423901  F        0       0.00000000       0.00000000       0.00000000       0.00000000       0.00000000       0.00000000
Zn       8.38935119       1.42336917      10.43740177  F        0       0.00000000       0.00000000       0.00000000       0.00000000       0.00000000       0.00000000
Zn      -0.98563546       6.45965314      10.43740177  F        0       0.00000000       0.00000000       0.00000000       0.00000000       0.00000000       0.00000000
Zn       1.35811144       6.45965314       9.08423901  F        0       0.00000000       0.00000000       0.00000000       0.00000000       0.00000000       0.00000000
Zn      -0.20438641       3.94921994       9.08423901  F        0       0.00000000       0.00000000       0.00000000       0.00000000       0.00000000       0.00000000
Zn       2.13936001       3.94921994      10.43740177  F        0       0.00000000       0.00000000       0.00000000       0.00000000       0.00000000       0.00000000
Zn       1.36036379       1.37844142      11.93801221  T        1      -0.00257100       0.00394600      -0.00978300      -0.00257100       0.00394600      -0.00978300
Zn       8.40133996       1.57565646      13.16318936  T        1      -0.00167500       0.01820700       0.00476400      -0.00167500       0.01820700       0.00476400
Zn      -1.10502725       6.36525625      13.17970730  T        1      -0.00331800      -0.02898700       0.00589800      -0.00331800      -0.02898700       0.00589800
Zn       1.26792491       6.57573680      11.92142189  T        1       0.00226200       0.00287700      -0.00075700       0.00226200       0.00287700      -0.00075700
Zn      -0.02227732       4.00656978      11.97239923  T        1       0.00168100      -0.00143200       0.00316100       0.00168100      -0.00143200       0.00316100
Zn       2.35865685       4.38065946      13.16808676  T        1       0.00656200       0.01974900       0.00152600       0.00656200       0.01974900       0.00152600
C        3.85341684       8.62867939      14.20513450  T        2       0.01420400       0.00212800       0.04107600       0.01420400       0.00212800       0.04107600
H        3.88262619       8.57013385      15.31068551  T        2       0.01875200      -0.01367100       0.04587100       0.01875200      -0.01367100       0.04587100
O        4.98871162       9.34308045      13.70804558  T        2      -0.02256000      -0.05935800       0.01835800      -0.02256000      -0.05935800       0.01835800
75
Lattice="9.37498664855957 0.0 5.740523866230461e-16 -3.124995470046997 15.124268531799316 9.456562755557891e-16 0.0 0.0 29.769580841064453" Properties=species:S:1:pos:R:3:move_mask:L:1:tags:I:1:DFT_forces:R:3:forces:R:3 DFT_energy=-57.04233681 energy=-57.04233681 pbc="T T T"
Zn       4.48310691       8.98550344       6.37791348  F        0       0.00000000       0.00000000       0.00000000       0.00000000       0.00000000       0.00000000
Zn       2.13936025       8.98550344       7.73107624  F        0       0.00000000       0.00000000       0.00000000       0.00000000       0.00000000       0.00000000
Zn       2.13936025      14.02178693       7.73107624  F        0       0.00000000       0.00000000       0.00000000       0.00000000       0.00000000       0.00000000
Zn       4.48310691      14.02178693       6.37791348  F        0       0.00000000       0.00000000       0.00000000       0.00000000       0.00000000       0.00000000
Zn       2.92060912      11.51135421       6.37791348  F        0       0.00000000       0.00000000       0.00000000       0.00000000       0.00000000       0.00000000
Zn       5.26435572      11.51135421       7.73107624  F        0       0.00000000       0.00000000       0.00000000       0.00000000       0.00000000       0.00000000
Zn       4.48310691       8.98550344       9.08423901  F        0       0.00000000       0.00000000       0.00000000       0.00000000       0.00000000       0.00000000
Zn       2.13936025       8.98550344      10.43740177  F        0       0.00000000       0.00000000       0.00000000       0.00000000       0.00000000       0.00000000
Zn       2.13936025      14.02178693      10.43740177  F        0       0.00000000       0.00000000       0.00000000       0.00000000       0.00000000       0.00000000
Zn       4.48310691      14.02178693       9.08423901  F        0       0.00000000       0.00000000       0.00000000       0.00000000       0.00000000       0.00000000
Zn       2.92060912      11.51135421       9.08423901  F        0       0.00000000       0.00000000       0.00000000       0.00000000       0.00000000       0.00000000
Zn       5.26435572      11.51135421      10.43740177  F        0       0.00000000       0.00000000       0.00000000       0.00000000       0.00000000       0.00000000
Zn       4.44961225       9.04790536      11.71424567  T        1       0.09368600       0.06403500      -0.38480000       0.09368600       0.06403500      -0.38480000
Zn       2.14387122       9.69959111      13.42415471  T        1       0.10284300      -0.08775000      -0.01436200       0.10284300      -0.08775000      -0.01436200
Zn       1.69017376      14.62950058      13.15788274  T        1      -0.00907300      -0.00039900      -0.00427000      -0.00907300      -0.00039900      -0.00427000