65
Lattice="13.721749305725098 0.0 -2.206625647924675e-15 -8.877743320447257e-16 14.498455047607422 -6.289059638977051 0.0 0.0 38.85085678100586" Properties=species:S:1:pos:R:3:move_mask:L:1:tags:I:1:DFT_forces:R:3:forces:R:3:magmoms:R:1 DFT_energy=-233.84596471 energy=-233.84596471 dipole="_JSON [[0.0, 0.0, 0.0]]" magmom=0.0 free_energy=-233.85136258 pbc="T T T"
Rb       1.40545440       1.02405071       9.56177950  F        0       0.00000000       0.00000000       0.00000000       0.04058600      -0.25848300      -0.26353900       0.00000000
Rb       1.26489361       5.98446552      14.41441229  T        1      -0.00178100       0.01068800      -0.00848400      -0.00178100       0.01068800      -0.00848400       0.00000000
Rb       1.40545440      10.68968719       8.60664415  F        0       0.00000000       0.00000000       0.00000000       0.09442400      -0.34659400      -0.07110600       0.00000000
Rb       4.28012085       4.18944836      10.92452478  F        0       0.00000000       0.00000000       0.00000000      -0.09940400      -0.02790000      -0.42605000       0.00000000
Rb       4.28012085       9.02226734       5.59059954  F        0       0.00000000       0.00000000       0.00000000       0.01813500      -0.32699300      -0.19748800       0.00000000
Rb       4.26655894      14.01756582      10.11666856  T        1      -0.01143000       0.00522900      -0.00228700      -0.01143000       0.00522900      -0.00228700       0.00000000
Rb       4.28012085      13.10609627       5.93968248  F        0       0.00000000       0.00000000       0.00000000       0.12014100      -0.01831500      -0.27678200       0.00000000
Rb       4.25604529       3.82700167      16.98665270  T        1       0.00708100       0.00403000      -0.00963400       0.00708100       0.00403000      -0.00963400       0.00000000
Rb       4.30321212       8.11656267      11.40837198  T        1      -0.00283000       0.01127000       0.00234300      -0.00283000       0.01127000       0.00234300       0.00000000
Rb       1.40545440       1.77303934      13.59148741  F        0       0.00000000       0.00000000       0.00000000       0.26270300       0.23848600      -0.28847100       0.00000000
Rb       1.40545440       6.60585785       8.25756216  F        0       0.00000000       0.00000000       0.00000000       0.19668600      -0.05560700      -0.44250500       0.00000000
Rb       1.37205016      11.48922432      13.12022034  T        1       0.00439100      -0.00517500       0.00711900       0.00439100      -0.00517500       0.00711900       0.00000000
Rb       8.26372887       0.86091828      14.52336157  T        1      -0.01266400       0.01231200      -0.01031600      -0.01266400       0.01231200      -0.01031600       0.00000000
Rb       8.26632929       5.85686874       9.08421278  F        0       0.00000000       0.00000000       0.00000000      -0.12366000      -0.03332000      -0.26383400       0.00000000
Rb       8.47892048      10.94829891      14.24782499  T        1      -0.01184900       0.00323000       0.00261400      -0.01184900       0.00323000       0.00261400       0.00000000
Rb      11.14099550      13.85508537       5.11303186  F        0       0.00000000       0.00000000       0.00000000      -0.19537500      -0.04179000      -0.42329000       0.00000000
Rb      11.22664056       4.22568472      16.34035768  T        1      -0.00535400       0.00532700       0.00263000      -0.00535400       0.00532700       0.00263000       0.00000000
Rb      11.14099550       9.02226734      10.44695711  F        0       0.00000000       0.00000000       0.00000000      -0.22968100       0.23754100      -0.23932900       0.00000000
Rb      11.14099550       3.44046021      11.75117445  F        0       0.00000000       0.00000000       0.00000000      -0.09967800      -0.31068000      -0.03164500       0.00000000
Rb      11.14099550       8.27327824       6.41725016  F        0       0.00000000       0.00000000       0.00000000      -0.03137500      -0.26397300      -0.26104600       0.00000000
Rb      11.29877339      13.21160916      11.28597891  T        1      -0.01065000      -0.00075700      -0.00471100      -0.01065000      -0.00075700      -0.00471100       0.00000000
Rb       8.26632929       1.77303934       8.73512983  F        0       0.00000000       0.00000000       0.00000000      -0.02609000      -0.33114400      -0.19242700       0.00000000
Rb       8.35119035       6.85665112      13.26041866  T        1       0.01104600       0.00468100      -0.00220900       0.01104600       0.00468100      -0.00220900       0.00000000
Rb       8.26632929      11.43867612       7.77999353  F        0       0.00000000       0.00000000       0.00000000       0.12713800      -0.01451600      -0.41993900       0.00000000
Co      13.13409948      11.06418169       5.76514101  F        0       0.00000000       0.00000000       0.00000000       1.27373300       0.32869200       1.27846400       0.00000000
Co      13.43510415       1.10355697      16.04491764  T        1       0.00244300      -0.00408800      -0.00936000       0.00244300      -0.00408800      -0.00936000       0.00000000
Co      13.13409948       6.23136330      11.09906626  F        0       0.00000000       0.00000000       0.00000000       0.21131700      -0.23124700       0.08670900       0.00000000
Co      13.13409948      13.48059082       7.95453501  F        0       0.00000000       0.00000000       0.00000000      -0.13826900      -0.24482800       0.14397500       0.00000000
Co      13.13409948       3.81495380       8.90967131  F        0       0.00000000       0.00000000       0.00000000      -1.25918100       0.33085200       1.28539800       0.00000000
Co      12.87932370       8.36019858      12.87939804  T        1       0.02540700      -0.02498200      -0.03001400       0.02540700      -0.02498200      -0.03001400       0.00000000
Co       6.27322483       1.39854527      11.57663298  F        0       0.00000000       0.00000000       0.00000000       0.02630400      -0.01876200      -0.06461900       0.00000000
Co       6.43275808       5.79367454      15.47983523  T        1      -0.03241400       0.00537600       0.00605700      -0.03241400       0.00537600       0.00605700       0.00000000
Co       6.27322483      11.06418169      10.62149858  F        0       0.00000000       0.00000000       0.00000000       0.03817600      -0.66068400      -0.20365700       0.00000000
Co       6.31709780      12.96226580      12.52423759  T        1      -0.00751900       0.00341400      -0.01647600      -0.00751900       0.00341400      -0.01647600       0.00000000
Co       6.27322483       3.81495380      13.76602888  F        0       0.00000000       0.00000000       0.00000000      -0.04849300      -0.46819300      -0.12080500       0.00000000
Co       6.27322483       8.64777279       8.43210363  F        0       0.00000000       0.00000000       0.00000000       0.04252800      -0.08996200      -0.00103900       0.00000000
Se       0.73615193      13.10992408       5.93545771  F        0       0.00000000       0.00000000       0.00000000      -0.64416400      -0.71780200       0.11684600       0.00000000
Se       0.67104185       3.06479336      16.77952233  T        1      -0.00418800      -0.00401700       0.00284200      -0.00418800      -0.00401700       0.00284200       0.00000000
Se       0.76177853       8.18274089      11.27900088  T        1      -0.02348600      -0.00633200       0.01939700      -0.02348600      -0.00633200       0.01939700       0.00000000
Se       4.94942331       1.02787828       9.55755568  F        0       0.00000000       0.00000000       0.00000000       0.43919900       0.23365200       0.89990800       0.00000000
Se       4.77898756       5.68795689      13.93132923  T        1       0.02926100      -0.02776900      -0.00116400       0.02926100      -0.02776900      -0.00116400       0.00000000
Se       4.94942331      10.69351488       8.60241938  F        0       0.00000000       0.00000000       0.00000000       0.41162600      -0.20997900       0.34994300       0.00000000
Se       0.73615193       4.18562126      10.92874861  F        0       0.00000000       0.00000000       0.00000000      -0.48880500       0.13827400      -0.59653300       0.00000000
Se       0.73615193       9.01843929       5.59482431  F        0       0.00000000       0.00000000       0.00000000      -0.75187700       0.97093400       0.02718400       0.00000000
Se       0.77414134      13.63479501       9.89759031  T        1      -0.00991300      -0.01635700       0.00279500      -0.00991300      -0.01635700       0.00279500       0.00000000
Se       4.94942331       1.76921177      13.59571218  F        0       0.00000000       0.00000000       0.00000000       0.49693500       0.19384000      -0.28807400       0.00000000
Se       4.94942331       6.60202980       8.26178694  F        0       0.00000000       0.00000000       0.00000000       0.41034100       0.82850300       0.17108900       0.00000000
Se       4.92839347      11.27658853      12.60845505  T        1       0.00197300      -0.00903100       0.00106600       0.00197300      -0.00903100       0.00106600       0.00000000
Se       7.59702635       3.44428730      11.74694967  F        0       0.00000000       0.00000000       0.00000000      -0.55358400      -0.40039200       0.28139900       0.00000000
Se       7.59702635       8.27710629       6.41302538  F        0       0.00000000       0.00000000       0.00000000      -0.47334700       0.18947900       0.92245900       0.00000000
Se       7.71641793      12.96749669      10.83999451  T        1       0.00353000      -0.00518100      -0.01528500       0.00353000      -0.00518100      -0.01528500       0.00000000
Se      11.81265802       0.94033794      14.45744033  T        1       0.00748400      -0.00896300       0.03605900       0.00748400      -0.00896300       0.03605900       0.00000000
Se      11.81029749       5.86069679       9.07998800  F        0       0.00000000       0.00000000       0.00000000       0.64279900      -0.69487300       0.12158100       0.00000000
Se      11.97392684      10.32980189      13.63602588  T        1      -0.00524100       0.01101100       0.00729300      -0.00524100       0.01101100       0.00729300       0.00000000
Se       7.59702635      13.85125756       5.11725664  F        0       0.00000000       0.00000000       0.00000000      -0.38317700       0.75159000       0.24262400       0.00000000
Se       7.77533552       3.99806627      15.58413583  T        1      -0.00180700      -0.00834500       0.01566900      -0.00180700      -0.00834500       0.01566900       0.00000000
Se       7.59702635       9.01843929      10.45118189  F        0       0.00000000       0.00000000       0.00000000      -0.47830000       0.24322300      -0.32238100       0.00000000
Se      11.81029749       1.76921177       8.73935461  F        0       0.00000000       0.00000000       0.00000000       0.76678600       0.98064400       0.05117700       0.00000000
Se      11.81069779       6.40251859      13.04379513  T        1      -0.00728100       0.00014200       0.00097100      -0.00728100       0.00014200       0.00097100       0.00000000
Se      11.81029749      11.43484843       7.78421831  F        0       0.00000000       0.00000000       0.00000000       0.47839000       0.15294300      -0.55366400       0.00000000
C        7.30480136       8.43411664      16.72466316  T        2       0.01399700      -0.04126600       0.01564600       0.01399700      -0.04126600       0.01564600       0.00000000
C        6.85550819       7.24942187      16.27737188  T        2       0.02372900       0.00494400      -0.02816300       0.02372900       0.00494400      -0.02816300       0.00000000
H        8.13062954       8.57079666      17.43565102  T        2      -0.02954900      -0.00579600      -0.02155900      -0.02954900      -0.00579600      -0.02155900       0.00000000
H        5.88646677       9.50575132      15.92514249  T        2       0.00351100       0.00940000       0.00680100       0.00351100       0.00940000       0.00680100       0.00000000
O        6.72748013       9.70374748      16.38647793  T        2      -0.02938500       0.02438700      -0.00016900      -0.02938500       0.02438700      -0.00016900       0.00000000
65
Lattice="13.721749305725098 0.0 -2.206625647924675e-15 -8.877743320447257e-16 14.498455047607422 -6.289059638977051 0.0 0.0 38.85085678100586" Properties=species:S:1:pos:R:3:move_mask:L:1:tags:I:1:DFT_forces:R:3:forces:R:3 DFT_energy=-232.30820793 energy=-232.30820793 pbc="T T T"
Rb       1.40545440       1.02405071       9.56177950  F        0       0.00000000       0.00000000       0.00000000       0.00000000       0.00000000       0.00000000
Rb       1.32398404       5.99928082      14.40413056  T        1       0.01290800       0.00189900      -0.01697500       0.01290800       0.00189900      -0.01697500
Rb       1.40545440      10.68968719       8.60664415  F        0       0.00000000       0.00000000       0.00000000       0.00000000       0.00000000       0.00000000
Rb       4.28012085       4.18944836      10.92452478  F        0       0.00000000       0.00000000       0.00000000       0.00000000       0.00000000       0.00000000
Rb       4.28012085       9.02226734       5.59059954  F        0       0.00000000       0.00000000       0.00000000       0.00000000       0.00000000       0.00000000
Rb       4.21843836      13.99773643      10.05687474  T        1       0.00149500       0.01482000       0.00109700       0.00149500       0.01482000       0.00109700
Rb       4.28012085      13.10609627       5.93968248  F        0       0.00000000       0.00000000       0.00000000       0.00000000       0.00000000       0.00000000
Rb       4.18123712       3.82871331      16.99515507  T        1       0.09350700       0.14666800      -0.03235500       0.09350700       0.14666800      -0.03235500
Rb       4.28983798       8.14957304      11.40607271  T        1       0.00038700      -0.00551600       0.00217400       0.00038700      -0.00551600       0.00217400
Rb       1.40545440       1.77303934      13.59148741  F        0       0.00000000       0.00000000       0.00000000       0.00000000       0.00000000       0.00000000
Rb       1.40545440       6.60585785       8.25756216  F        0       0.00000000       0.00000000       0.00000000       0.00000000       0.00000000       0.00000000
Rb       1.27965683      11.44451006      13.19311977  T        1       0.01075100       0.00368500      -0.00447800       0.01075100       0.00368500      -0.00447800
Rb       8.29901330       0.81415405      14.48883224  T        1       0.00925500      -0.04615500      -0.02404000       0.00925500      -0.04615500      -0.02404000
Rb       8.26632929       5.85686874       9.08421278  F        0       0.00000000       0.00000000       0.00000000       0.00000000       0.00000000       0.00000000
Rb       8.23132626      10.84167323      14.10882208  T        1      -0.00098300      -0.01506700      -0.00807600      -0.00098300      -0.01506700      -0.00807600
Rb      11.14099550      13.85508537       5.11303186  F        0       0.00000000       0.00000000       0.00000000       0.00000000       0.00000000       0.00000000
Rb      10.90154720       4.69361497      16.54354243  T        1       0.11729300      -0.16636600      -0.05533800       0.11729300      -0.16636600      -0.05533800
Rb      11.14099550       9.02226734      10.44695711  F        0       0.00000000       0.00000000       0.00000000       0.00000000       0.00000000       0.00000000
Rb      11.14099550       3.44046021      11.75117445  F        0       0.00000000       0.00000000       0.00000000       0.00000000       0.00000000       0.00000000
Rb      11.14099550       8.27327824       6.41725016  F        0       0.00000000       0.00000000       0.00000000       0.00000000       0.00000000       0.00000000
Rb      11.23598975      13.26220586      11.31080578  T        1       0.00453100       0.00001800      -0.00314200       0.00453100       0.00001800      -0.00314200
Rb       8.26632929       1.77303934       8.73512983  F        0       0.00000000       0.00000000       0.00000000       0.00000000       0.00000000       0.00000000
Rb       8.36723587       6.71639167      13.02793390  T        1      -0.01365600       0.02234700      -0.08364800      -0.01365600       0.02234700      -0.08364800
Rb       8.26632929      11.43867612       7.77999353  F        0       0.00000000       0.00000000       0.00000000       0.00000000       0.00000000       0.00000000
Co      13.13409948      11.06418169       5.76514101  F        0       0.00000000       0.00000000       0.00000000       0.00000000       0.00000000       0.00000000
Co      13.36518058       1.12163545      16.02094088  T        1      -0.00130000      -0.00366500      -0.00285500      -0.00130000      -0.00366500      -0.00285500
Co      13.13409948       6.23136330      11.09906626  F        0       0.00000000       0.00000000       0.00000000       0.00000000       0.00000000       0.00000000
Co      13.13409948      13.48059082       7.95453501  F        0       0.00000000       0.00000000       0.00000000       0.00000000       0.00000000       0.00000000
Co      13.13409948       3.81495380       8.90967131  F        0       0.00000000       0.00000000       0.00000000       0.00000000       0.00000000       0.00000000
Co      12.83437601       8.34689734      12.91333665  T        1       0.00133400       0.00235900       0.00796400       0.00133400       0.00235900       0.00796400
Co       6.27322483       1.39854527      11.57663298  F        0       0.00000000       0.00000000       0.00000000       0.00000000       0.00000000       0.00000000
Co       6.75682086       5.77841306      15.61076455  T        1      -0.17474500      -0.29142500      -0.36995400      -0.17474500      -0.29142500      -0.36995400
Co       6.27322483      11.06418169      10.62149858  F        0       0.00000000       0.00000000       0.00000000       0.00000000       0.00000000       0.00000000
Co       6.22948923      13.01827687      12.47420600  T        1       0.00152600      -0.00217300       0.00162000       0.00152600      -0.00217300       0.00162000
Co       6.27322483       3.81495380      13.76602888  F        0       0.00000000       0.00000000       0.00000000       0.00000000       0.00000000       0.00000000
Co       6.27322483       8.64777279       8.43210363  F        0       0.00000000       0.00000000       0.00000000       0.00000000       0.00000000       0.00000000
Se       0.73615193      13.10992408       5.93545771  F        0       0.00000000       0.00000000       0.00000000       0.00000000       0.00000000       0.00000000
Se       0.44765263       3.15651893      16.72543792  T        1      -0.00052100       0.01938500       0.00600300      -0.00052100       0.01938500       0.00600300
Se       0.74245179       8.18912615      11.32942465  T        1       0.00111100      -0.00269000      -0.00157600       0.00111100      -0.00269000      -0.00157600
Se       4.94942331       1.02787828       9.55755568  F        0       0.00000000       0.00000000       0.00000000       0.00000000       0.00000000       0.00000000
Se       5.11905569       5.86806920      13.96858262  T        1      -0.07406900      -0.01283100      -0.12338700      -0.07406900      -0.01283100      -0.12338700
Se       4.94942331      10.69351488       8.60241938  F        0       0.00000000       0.00000000       0.00000000       0.00000000       0.00000000       0.00000000
Se       0.73615193       4.18562126      10.92874861  F        0       0.00000000       0.00000000       0.00000000       0.00000000       0.00000000       0.00000000
Se       0.73615193       9.01843929       5.59482431  F        0       0.00000000       0.00000000       0.00000000       0.00000000       0.00000000       0.00000000
Se       0.72320535      13.65638628       9.94116937  T        1      -0.00164800       0.01322100       0.00042800      -0.00164800       0.01322100       0.00042800
Se       4.94942331       1.76921177      13.59571218  F        0       0.00000000       0.00000000       0.00000000       0.00000000       0.00000000       0.00000000
Se       4.94942331       6.60202980       8.26178694  F        0       0.00000000       0.00000000       0.00000000       0.00000000       0.00000000       0.00000000
Se       4.83440447      11.33893794      12.54121254  T        1       0.00105700       0.00071900      -0.00038600       0.00105700       0.00071900      -0.00038600
Se       7.59702635       3.44428730      11.74694967  F        0       0.00000000       0.00000000       0.00000000       0.00000000       0.00000000       0.00000000
Se       7.59702635       8.27710629       6.41302538  F        0       0.00000000       0.00000000       0.00000000       0.00000000       0.00000000       0.00000000
Se       7.67727779      12.98731437      10.83198534  T        1       0.00317500      -0.00221700       0.00165300       0.00317500      -0.00221700       0.00165300
Se      11.80987160       0.91471210      14.40082024  T        1       0.00300900       0.00855900       0.01320500       0.00300900       0.00855900       0.01320500
Se      11.81029749       5.86069679       9.07998800  F        0       0.00000000       0.00000000       0.00000000       0.00000000       0.00000000       0.00000000
Se      11.85016232      10.27888674      13.67269744  T        1       0.03030100       0.01509000      -0.00118100       0.03030100       0.01509000      -0.00118100
Se       7.59702635      13.85125756       5.11725664  F        0       0.00000000       0.00000000       0.00000000       0.00000000       0.00000000       0.00000000
Se       7.60674862       3.69607469      15.76771399  T        1       0.12118100      -0.07038300      -0.01123500       0.12118100      -0.07038300      -0.01123500
Se       7.59702635       9.01843929      10.45118189  F        0       0.00000000       0.00000000       0.00000000       0.00000000       0.00000000       0.00000000
Se      11.81029749       1.76921177       8.73935461  F        0       0.00000000       0.00000000       0.00000000       0.00000000       0.00000000       0.00000000
Se      11.84262202       6.35424583      13.07638449  T        1      -0.00498600      -0.00653400       0.01409600      -0.00498600      -0.00653400       0.01409600
Se      11.81029749      11.43484843       7.78421831  F        0       0.00000000       0.00000000       0.00000000       0.00000000       0.00000000       0.00000000
C        7.87962154       7.24662830      16.46577743  T        2      -0.80898100       0.09957200       0.28496400      -0.80898100       0.09957200       0.28496400
C        6.48789969       6.95683149      16.84255171  T        2       1.01118100       1.05030500      -0.32874500       1.01118100       1.05030500      -0.32874500
H        8.50884015       7.22225818      17.36614055  T        2       0.62750800      -0.52111300       0.13197600       0.62750800      -0.52111300       0.13197600
H        9.50157332       8.16110789      15.49862332  T        2      -0.42529500      -0.12054300       0.47981800      -0.42529500      -0.12054300       0.47981800
O        8.52800420       8.31035228      15.58831341  T        2      -0.64603300      -0.13946100      -0.16536200      -0.64603300      -0.13946100      -0.16536200
65
Lattice="13.721749305725098 0.0 -2.206625647924675e-15 -8.877743320447257e-16 14.498455047607422 -6.289059638977051 0.0 0.0 38.85085678100586" Properties=species:S:1:pos:R:3:move_mask:L:1:tags:I:1:DFT_forces:R:3:forces:R:3 DFT_energy=-230.63486135 energy=-230.63486135 pbc="T T T"
Rb       1.40545440       1.02405071       9.56177950  F        0       0.00000000       0.00000000       0.00000000       0.00000000       0.00000000       0.00000000
Rb       1.31620172       5.99581059      14.41600757  T        1       0.00644300      -0.00210800      -0.00648600       0.00644300      -0.00210800      -0.00648600
Rb       1.40545440      10.68968719       8.60664415  F        0       0.00000000       0.00000000       0.00000000       0.00000000       0.00000000       0.00000000
Rb       4.28012085       4.18944836      10.92452478  F        0       0.00000000       0.00000000       0.00000000       0.00000000       0.00000000       0.00000000
Rb       4.28012085       9.02226734       5.59059954  F        0       0.00000000       0.00000000       0.00000000       0.00000000       0.00000000       0.00000000
Rb       4.21799597      13.99146904      10.05862423  T        1       0.00217700       0.00896900       0.00248600       0.00217700       0.00896900       0.00248600
Rb       4.28012085      13.10609627       5.93968248  F        0       0.00000000       0.00000000       0.00000000       0.00000000       0.00000000       0.00000000
Rb       4.12653485       3.73869932      17.01377339  T        1       0.03218500       0.01569500      -0.03956500       0.03218500       0.01569500      -0.03956500
Rb       4.29112928       8.15059250      11.40571452  T        1       0.01684400      -0.02293300       0.02581900       0.01684400      -0.02293300       0.02581900
Rb       1.40545440       1.77303934      13.59148741  F        0       0.00000000       0.00000000       0.00000000       0.00000000       0.00000000       0.00000000
Rb       1.40545440       6.60585785       8.25756216  F        0       0.00000000       0.00000000       0.00000000       0.00000000       0.00000000       0.00000000
Rb       1.27447603      11.44342473      13.19394161  T        1       0.00202600       0.00162600      -0.00506100       0.00202600       0.00162600      -0.00506100
Rb       8.29703596       0.83610552      14.50132007  T        1       0.00177900      -0.01049200      -0.01058200       0.00177900      -0.01049200      -0.01058200
Rb       8.26632929       5.85686874       9.08421278  F        0       0.00000000       0.00000000       0.00000000       0.00000000       0.00000000       0.00000000
Rb       8.23150946      10.85025283      14.11248246  T        1       0.01092000      -0.01465800       0.01059400       0.01092000      -0.01465800       0.01059400
Rb      11.14099550      13.85508537       5.11303186  F        0       0.00000000       0.00000000       0.00000000       0.00000000       0.00000000       0.00000000
Rb      10.82994235       4.79295249      16.57635315  T        1      -0.00439800      -0.07510800      -0.04543400      -0.00439800      -0.07510800      -0.04543400
Rb      11.14099550       9.02226734      10.44695711  F        0       0.00000000       0.00000000       0.00000000       0.00000000       0.00000000       0.00000000
Rb      11.14099550       3.44046021      11.75117445  F        0       0.00000000       0.00000000       0.00000000       0.00000000       0.00000000       0.00000000
Rb      11.14099550       8.27327824       6.41725016  F        0       0.00000000       0.00000000       0.00000000       0.00000000       0.00000000       0.00000000
Rb      11.23633369      13.26488408      11.31040518  T        1       0.00295700      -0.00408000      -0.00220100       0.00295700      -0.00408000      -0.00220100
Rb       8.26632929       1.77303934       8.73512983  F        0       0.00000000       0.00000000       0.00000000       0.00000000       0.00000000       0.00000000
Rb       8.37738230       6.69751845      13.07131430  T        1      -0.02062900       0.02077700      -0.11016700      -0.02062900       0.02077700      -0.11016700
Rb       8.26632929      11.43867612       7.77999353  F        0       0.00000000       0.00000000       0.00000000       0.00000000       0.00000000       0.00000000
Co      13.13409948      11.06418169       5.76514101  F        0       0.00000000       0.00000000       0.00000000       0.00000000       0.00000000       0.00000000
Co      13.36573546       1.11742418      16.01758813  T        1      -0.01553700      -0.00037000      -0.00134800      -0.01553700      -0.00037000      -0.00134800
Co      13.13409948       6.23136330      11.09906626  F        0       0.00000000       0.00000000       0.00000000       0.00000000       0.00000000       0.00000000
Co      13.13409948      13.48059082       7.95453501  F        0       0.00000000       0.00000000       0.00000000       0.00000000       0.00000000       0.00000000
Co      13.13409948       3.81495380       8.90967131  F        0       0.00000000       0.00000000       0.00000000       0.00000000       0.00000000       0.00000000
Co      12.83397679       8.34825839      12.91072863  T        1      -0.00108300      -0.01371300       0.00517000      -0.00108300      -0.01371300       0.00517000
Co       6.27322483       1.39854527      11.57663298  F        0       0.00000000       0.00000000       0.00000000       0.00000000       0.00000000       0.00000000
Co       6.85509512       5.96912471      15.84679642  T        1       0.65408000       0.29688300       0.31674400       0.65408000       0.29688300       0.31674400
Co       6.27322483      11.06418169      10.62149858  F        0       0.00000000       0.00000000       0.00000000       0.00000000       0.00000000       0.00000000
Co       6.22765136      13.02205330      12.47519484  T        1       0.01265800      -0.01074700      -0.00492200       0.01265800      -0.01074700      -0.00492200
Co       6.27322483       3.81495380      13.76602888  F        0       0.00000000       0.00000000       0.00000000       0.00000000       0.00000000       0.00000000
Co       6.27322483       8.64777279       8.43210363  F        0       0.00000000       0.00000000       0.00000000       0.00000000       0.00000000       0.00000000