100
Lattice="14.212244987487793 0.0 0.7690935730934143 2.9711925983428955 8.164420127868652 0.9767815470695496 0.0 0.0 37.10187530517578" Properties=species:S:1:pos:R:3:move_mask:L:1:tags:I:1:DFT_forces:R:3:forces:R:3:magmoms:R:1 DFT_energy=-824.38992049 energy=-824.38992049 dipole="_JSON [[0.0, 0.0, 0.0]]" magmom=0.0 free_energy=-824.38526471 pbc="T T T"
P        4.66398752       2.47268867       8.73300683  F        0       0.00000000       0.00000000       0.00000000       0.13533000       0.00820200      -0.14868900       0.00000000
P        3.04908693       0.20479417      10.48016679  F        0       0.00000000       0.00000000       0.00000000       0.08845200       0.10084800       0.13339100       0.00000000
P        6.27888787       4.74058342       6.98584783  F        0       0.00000000       0.00000000       0.00000000       0.78737100       0.44631400      -1.02801700       0.00000000
P        9.76742256       7.99970627       8.25715071  F        0       0.00000000       0.00000000       0.00000000      -0.12558300       0.27336500      -0.84762200       0.00000000
P        8.15252221       5.73181200      10.00431001  F        0       0.00000000       0.00000000       0.00000000       0.08177800       0.08741900      -0.19327300       0.00000000
P        8.41113055       2.10318065       5.53320920  F        0       0.00000000       0.00000000       0.00000000       0.52175500       0.03704800      -0.28108100       0.00000000
P        3.20654690       0.27243435       7.62168443  F        0       0.00000000       0.00000000       0.00000000      -0.10382100      -0.20502800      -1.38308700       0.00000000
P        4.56283915       6.16896009      10.34562624  F        0       0.00000000       0.00000000       0.00000000       0.10528300      -0.11754200      -0.72622000       0.00000000
P        4.82144725       2.54032898       5.87452447  F        0       0.00000000       0.00000000       0.00000000      -0.40535400      -1.76574500      -0.47953000       0.00000000
P        8.14722788       2.94041348       9.46787393  F        0       0.00000000       0.00000000       0.00000000      -0.24922400      -0.00778100      -0.06084300       0.00000000
P        6.53232729       0.67251897      11.21503389  F        0       0.00000000       0.00000000       0.00000000      -0.06765400       0.03184700      -0.03809800       0.00000000
P        9.76212847       5.20830822       7.72071397  F        0       0.00000000       0.00000000       0.00000000       0.21983500       0.65690600      -1.52566300       0.00000000
P        9.89660132       3.83342552      15.33581483  F        0       0.00000000       0.00000000       0.00000000       0.08844300       0.15798000      -0.32098500       0.00000000
P        8.31195766       1.71333850      17.05427258  T        1       0.00312600       0.00686500       0.00908600       0.00312600       0.00686500       0.00908600       0.00000000
P       11.51150191       6.10131979      13.58865488  F        0       0.00000000       0.00000000       0.00000000       0.16641800       0.07129300       0.22926000       0.00000000
P        4.92272151       1.19602299      13.49862993  F        0       0.00000000       0.00000000       0.00000000       0.17685300      -0.01272000       0.16632100       0.00000000
P        6.17302760       7.11514809      16.30802313  T        1       0.00176100       0.00049900      -0.01638600       0.00176100       0.00049900      -0.01638600       0.00000000
P        6.53762209       3.46391726      11.75146997  F        0       0.00000000       0.00000000       0.00000000       0.01597600      -0.01271500      -0.02211700       0.00000000
P        8.43916047       1.63317108      14.22449243  F        0       0.00000000       0.00000000       0.00000000      -0.10927100      -0.21593200       0.06542300       0.00000000
P        9.77783845       7.48304531      16.89782487  T        1       0.00293200      -0.01839000       0.00006100       0.00293200      -0.01839000       0.00006100       0.00000000
P       10.05406153       3.90106583      12.47733247  F        0       0.00000000       0.00000000       0.00000000      -0.06685200      -0.11772200      -0.16229300       0.00000000
P        6.19673640       4.25624495      15.77937978  T        1       0.00123500       0.00857300      -0.00775100       0.00123500       0.00857300      -0.00775100       0.00000000
P        4.59469190       2.10526401      17.44515517  T        1      -0.01973100       0.02255000      -0.01176000      -0.01973100       0.02255000      -0.01176000       0.00000000
P        7.88861954       6.56904507      13.93897378  F        0       0.00000000       0.00000000       0.00000000      -0.34398900      -0.30944700       0.50133700       0.00000000
Ti       8.12319481       0.40939474       9.25210321  F        0       0.00000000       0.00000000       0.00000000      -0.21828500       0.04426400       0.09600200       0.00000000
Ti       9.47948706       6.30592060      11.97604311  F        0       0.00000000       0.00000000       0.00000000      -0.15618600      -0.08190300       0.00846900       0.00000000
Ti       9.73809540       2.67728949       7.50494325  F        0       0.00000000       0.00000000       0.00000000      -0.02921600       0.44575100      -0.70398100       0.00000000
Ti       6.24749183       1.75061156      15.54270549  T        1      -0.00806400       0.00551600      -0.00311600      -0.00806400       0.00551600      -0.00311600       0.00000000
Ti       7.67109515       7.82948416      18.08042492  T        1       0.00078100      -0.02027700       0.02179900       0.00078100      -0.02027700       0.02179900       0.00000000
Ti       7.86458647       4.03802586      13.72320306  F        0       0.00000000       0.00000000       0.00000000      -0.31598400       0.08653000       0.29158100       0.00000000
W        4.77570212       6.48217010       7.85711324  F        0       0.00000000       0.00000000       0.00000000       0.18408400      -0.32071300       0.97790000       0.00000000
W       10.26692450       4.21427536       9.98882043  F        0       0.00000000       0.00000000       0.00000000       0.10394100      -0.00641200      -0.19079300       0.00000000
W        3.41940987       0.58564436       5.13317239  F        0       0.00000000       0.00000000       0.00000000       0.52528600       1.07592800       3.43345800       0.00000000
W        6.85481513       2.32907510       7.47975099  F        0       0.00000000       0.00000000       0.00000000       0.15511200       0.15071000      -0.53844700       0.00000000
W        5.23991477       0.06118059       9.22691095  F        0       0.00000000       0.00000000       0.00000000       0.14738500       0.08069400      -0.07737400       0.00000000
W        8.46971571       4.59696960       5.73259103  F        0       0.00000000       0.00000000       0.00000000      -1.28649700      -1.16528200       3.69940900       0.00000000
W        6.04886639       4.42656040       9.45744455  F        0       0.00000000       0.00000000       0.00000000       0.12283700       0.06992500       0.08470100       0.00000000
W        4.43396580       2.15866590      11.20460451  F        0       0.00000000       0.00000000       0.00000000      -0.02125700       0.13710200       0.15777400       0.00000000
W        7.66376698       6.69445467       7.71028554  F        0       0.00000000       0.00000000       0.00000000      -0.55256800       0.07176000      -0.47392500       0.00000000
W       10.00831592       7.84290659      14.45991999  F        0       0.00000000       0.00000000       0.00000000       0.35878500       0.31549500      -0.36352600       0.00000000
W        8.43698494       5.52044627      16.31531873  T        1       0.01556300      -0.00075100      -0.00951700       0.01556300      -0.00075100      -0.00951700       0.00000000
W        8.65202343       1.94638109      11.73597848  F        0       0.00000000       0.00000000       0.00000000       0.07908300      -0.08275200       0.04136800       0.00000000
W        4.98130643       3.68981171      13.69801080  F        0       0.00000000       0.00000000       0.00000000      -0.13162300      -0.15092900      -0.16250400       0.00000000
W        3.37191302       1.46755154      15.41646852  T        1      -0.00966800       0.00111100      -0.00208100      -0.00966800       0.00111100      -0.00208100       0.00000000
W        6.59620678       5.95770645      11.95085084  F        0       0.00000000       0.00000000       0.00000000       0.07890200       0.09610300      -0.17982600       0.00000000
W       11.29362662       5.79581606      15.98142955  T        1      -0.02420200      -0.00240400       0.01730600      -0.02420200      -0.00240400       0.01730600       0.00000000
W        9.60807148       3.50773486      17.75657151  T        1      -0.00810400      -0.01966200      -0.00575600      -0.00810400      -0.01966200      -0.00575600       0.00000000
W        5.79025805       8.05519152      13.92854601  F        0       0.00000000       0.00000000       0.00000000      -0.07850300       0.01601900       0.37610100       0.00000000
P       11.77010977       2.47268867       9.11755311  F        0       0.00000000       0.00000000       0.00000000       0.12704800       0.00618500      -0.14314200       0.00000000
P       10.15520918       0.20479417      10.86471307  F        0       0.00000000       0.00000000       0.00000000       0.11369900       0.10515600       0.14193300       0.00000000
P       13.38501036       4.74058342       7.37039411  F        0       0.00000000       0.00000000       0.00000000       0.78010500       0.44567700      -1.00688000       0.00000000
P       16.87354553       7.99970627       8.64169699  F        0       0.00000000       0.00000000       0.00000000      -0.13108200       0.30091700      -0.86324000       0.00000000
P       15.25864470       5.73181200      10.38885629  F        0       0.00000000       0.00000000       0.00000000       0.06543700       0.08477800      -0.17888100       0.00000000
P        1.30500853       2.10318065       5.14866287  F        0       0.00000000       0.00000000       0.00000000       0.51618300       0.03090100      -0.27141500       0.00000000
P       10.31266940       0.27243435       8.00623167  F        0       0.00000000       0.00000000       0.00000000      -0.09924200      -0.22052300      -1.38877700       0.00000000
P       11.66896117       6.16896009      10.73017251  F        0       0.00000000       0.00000000       0.00000000       0.08650600      -0.15060500      -0.73332100       0.00000000
P       11.92756999       2.54032898       6.25907171  F        0       0.00000000       0.00000000       0.00000000      -0.39156600      -1.76578400      -0.47906500       0.00000000
P       15.25334990       2.94041348       9.85242021  F        0       0.00000000       0.00000000       0.00000000      -0.25849800      -0.00424100      -0.02969100       0.00000000
P       13.63844931       0.67251897      11.59958017  F        0       0.00000000       0.00000000       0.00000000      -0.02469300       0.00363500       0.02202200       0.00000000
P        2.65600550       5.20830822       7.33616763  F        0       0.00000000       0.00000000       0.00000000       0.24485600       0.64482800      -1.54035900       0.00000000
P        2.79047835       3.83342552      14.95126754  F        0       0.00000000       0.00000000       0.00000000       0.20990500       0.45131300      -0.49815700       0.00000000
P        1.09574169       1.92439740      16.83125694  T        1       0.02837800       0.02797900       0.00708600       0.02837800       0.02797900       0.00708600       0.00000000
P        4.40537894       6.10131979      13.20410758  F        0       0.00000000       0.00000000       0.00000000       0.13235000       0.10218300       0.31397200       0.00000000
P       12.02884352       1.19602299      13.88317621  F        0       0.00000000       0.00000000       0.00000000       0.29590100      -0.00202700      -0.06230900       0.00000000
P       13.29265134       7.04020183      16.70782494  T        1       0.00672900       0.00156400      -0.01729800       0.00672900       0.00156400      -0.01729800       0.00000000
P       13.64374411       3.46391726      12.13601625  F        0       0.00000000       0.00000000       0.00000000      -0.01538100      -0.04561900      -0.01239400       0.00000000
P        1.33303797       1.63317108      13.83994514  F        0       0.00000000       0.00000000       0.00000000      -0.04063800      -0.26337900      -0.08816100       0.00000000
P       16.87224935       7.47088189      17.32974932  T        1      -0.01216200      -0.00498400      -0.00544800      -0.01216200      -0.00498400      -0.00544800       0.00000000
P        2.94793856       3.90106583      12.09278518  F        0       0.00000000       0.00000000       0.00000000       0.00893300      -0.17176700      -0.17682400       0.00000000
P       13.33343551       4.29397587      16.15012542  T        1       0.00610300      -0.00590200      -0.00669000       0.00610300      -0.00590200      -0.00669000       0.00000000
P       11.70297796       2.23047162      17.82032295  T        1      -0.01025600       0.01992100       0.02428000      -0.01025600       0.01992100       0.02428000       0.00000000
P       14.99474204       6.56904507      14.32352197  F        0       0.00000000       0.00000000       0.00000000      -0.27117900      -0.23807100      -0.04388400       0.00000000
Ti       1.01707232       0.40939474       8.86755592  F        0       0.00000000       0.00000000       0.00000000      -0.25082400       0.03309600       0.06831600       0.00000000
Ti       2.37336409       6.30592060      11.59149772  F        0       0.00000000       0.00000000       0.00000000      -0.21082400       0.00222300       0.08958200       0.00000000
Ti       2.63197291       2.67728949       7.12039596  F        0       0.00000000       0.00000000       0.00000000      -0.03313600       0.45438800      -0.71307400       0.00000000
Ti      13.38447220       1.76801735      15.92753707  T        1       0.01948100       0.01056400      -0.00056600       0.01948100       0.01056400      -0.00056600       0.00000000
Ti      14.72254922       7.97825941      18.39720827  T        1       0.00114900      -0.00127900       0.03149000       0.00114900      -0.00127900       0.03149000       0.00000000
Ti      14.97070944       4.03802586      14.10774934  F        0       0.00000000       0.00000000       0.00000000      -0.39896200       0.06087800       0.13684200       0.00000000
W       11.88182414       6.48217010       8.24166048  F        0       0.00000000       0.00000000       0.00000000       0.19340800      -0.28961300       0.99208300       0.00000000
W        3.16080153       4.21427536       9.60427314  F        0       0.00000000       0.00000000       0.00000000       0.09422300      -0.02598300      -0.14532900       0.00000000
W       10.52553236       0.58564436       5.51771867  F        0       0.00000000       0.00000000       0.00000000       0.51812900       1.07627300       3.45155500       0.00000000
W       13.96093810       2.32907510       7.86429727  F        0       0.00000000       0.00000000       0.00000000       0.16057500       0.14797800      -0.54652600       0.00000000
W       12.34603751       0.06118059       9.61145723  F        0       0.00000000       0.00000000       0.00000000       0.15704800       0.08499400      -0.10386100       0.00000000
W       15.57583773       4.59696960       6.11713731  F        0       0.00000000       0.00000000       0.00000000      -1.26315100      -1.15058500       3.70748300       0.00000000
W       13.15498888       4.42656040       9.84199274  F        0       0.00000000       0.00000000       0.00000000       0.11294500       0.02326200       0.03522400       0.00000000
W       11.54008830       2.15866590      11.58915079  F        0       0.00000000       0.00000000       0.00000000       0.02082400       0.18339900       0.18213600       0.00000000
W       14.76988947       6.69445467       8.09483278  F        0       0.00000000       0.00000000       0.00000000      -0.54996200       0.04848000      -0.48108500       0.00000000
W        2.90219295       7.84290659      14.07537270  F        0       0.00000000       0.00000000       0.00000000       0.20267800       0.25090600      -0.15119600       0.00000000
W       15.54298591       5.59199219      16.55355643  T        1      -0.00251300       0.00232700      -0.00181000      -0.00251300       0.00232700      -0.00181000       0.00000000
W        1.54590094       1.94638109      11.35143310  F        0       0.00000000       0.00000000       0.00000000       0.10076900      -0.09973300      -0.02004400       0.00000000
W       12.08742869       3.68981171      14.08255708  F        0       0.00000000       0.00000000       0.00000000       0.11699500      -0.03544100      -0.14098700       0.00000000
W       10.50872491       1.44753708      15.79111587  T        1      -0.02877000       0.00331900       0.00448600      -0.02877000       0.00331900       0.00448600       0.00000000
W       13.70232928       5.95770645      12.33539712  F        0       0.00000000       0.00000000       0.00000000       0.06731700       0.18930000      -0.12552100       0.00000000
W        4.19790878       5.80005726      15.60520979  T        1       0.00394300       0.00023000      -0.01144800       0.00394300       0.00023000      -0.01144800       0.00000000
W        2.58938181       3.56079426      17.22722909  T        1      -0.01667400      -0.03729900       0.00015300      -0.01667400      -0.03729900       0.00015300       0.00000000
W       12.89638031       8.05519152      14.31309229  F        0       0.00000000       0.00000000       0.00000000      -0.11278100      -0.20092400       0.44795200       0.00000000
C        8.15146907       5.20358759      18.58557724  T        2      -0.03163000       0.00352100       0.02511300      -0.03163000       0.00352100       0.02511300       0.00000000
C        8.59358135       4.11092479      19.35740715  T        2      -0.01771900       0.03209300      -0.01464700      -0.01771900       0.03209300      -0.01464700       0.00000000
H        8.32076776       4.01199245      20.41353774  T        2      -0.03045000      -0.01465300       0.00036600      -0.03045000      -0.01465300       0.00036600       0.00000000
O        7.57594917       6.25312211      19.21745969  T        2      -0.02619600       0.02363800      -0.02653300      -0.02619600       0.02363800      -0.02653300       0.00000000
100
Lattice="14.212244987487793 0.0 0.7690935730934143 2.9711925983428955 8.164420127868652 0.9767815470695496 0.0 0.0 37.10187530517578" Properties=species:S:1:pos:R:3:move_mask:L:1:tags:I:1:DFT_forces:R:3:forces:R:3 DFT_energy=-824.38648131 energy=-824.38648131 pbc="T T T"
P        4.66398752       2.47268867       8.73300683  F        0       0.00000000       0.00000000       0.00000000       0.00000000       0.00000000       0.00000000
P        3.04908693       0.20479417      10.48016679  F        0       0.00000000       0.00000000       0.00000000       0.00000000       0.00000000       0.00000000
P        6.27888787       4.74058342       6.98584783  F        0       0.00000000       0.00000000       0.00000000       0.00000000       0.00000000       0.00000000
P        9.76742256       7.99970627       8.25715071  F        0       0.00000000       0.00000000       0.00000000       0.00000000       0.00000000       0.00000000
P        8.15252221       5.73181200      10.00431001  F        0       0.00000000       0.00000000       0.00000000       0.00000000       0.00000000       0.00000000
P        8.41113055       2.10318065       5.53320920  F        0       0.00000000       0.00000000       0.00000000       0.00000000       0.00000000       0.00000000
P        3.20654690       0.27243435       7.62168443  F        0       0.00000000       0.00000000       0.00000000       0.00000000       0.00000000       0.00000000
P        4.56283915       6.16896009      10.34562624  F        0       0.00000000       0.00000000       0.00000000       0.00000000       0.00000000       0.00000000
P        4.82144725       2.54032898       5.87452447  F        0       0.00000000       0.00000000       0.00000000       0.00000000       0.00000000       0.00000000
P        8.14722788       2.94041348       9.46787393  F        0       0.00000000       0.00000000       0.00000000       0.00000000       0.00000000       0.00000000
P        6.53232729       0.67251897      11.21503389  F        0       0.00000000       0.00000000       0.00000000       0.00000000       0.00000000       0.00000000
P        9.76212847       5.20830822       7.72071397  F        0       0.00000000       0.00000000       0.00000000       0.00000000       0.00000000       0.00000000
P        9.89660132       3.83342552      15.33581483  F        0       0.00000000       0.00000000       0.00000000       0.00000000       0.00000000       0.00000000
P        8.32633785       1.67522943      17.05478006  T        1       0.00209500       0.02283700       0.00515200       0.00209500       0.02283700       0.00515200
P       11.51150191       6.10131979      13.58865488  F        0       0.00000000       0.00000000       0.00000000       0.00000000       0.00000000       0.00000000
P        4.92272151       1.19602299      13.49862993  F        0       0.00000000       0.00000000       0.00000000       0.00000000       0.00000000       0.00000000
P        6.16131629       7.13178851      16.30370087  T        1       0.00211500      -0.00132100       0.00680900       0.00211500      -0.00132100       0.00680900
P        6.53762209       3.46391726      11.75146997  F        0       0.00000000       0.00000000       0.00000000       0.00000000       0.00000000       0.00000000
P        8.43916047       1.63317108      14.22449243  F        0       0.00000000       0.00000000       0.00000000       0.00000000       0.00000000       0.00000000
P        9.81059503       7.48832267      16.89688263  T        1      -0.00260500       0.00171300      -0.00478300      -0.00260500       0.00171300      -0.00478300
P       10.05406153       3.90106583      12.47733247  F        0       0.00000000       0.00000000       0.00000000       0.00000000       0.00000000       0.00000000
P        6.19526022       4.26297549      15.78127408  T        1       0.00116600       0.00171700      -0.00317400       0.00116600       0.00171700      -0.00317400
P        4.60595146       2.06464751      17.44615619  T        1       0.00551800       0.01665400      -0.01380900       0.00551800       0.01665400      -0.01380900
P        7.88861954       6.56904507      13.93897378  F        0       0.00000000       0.00000000       0.00000000       0.00000000       0.00000000       0.00000000
Ti       8.12319481       0.40939474       9.25210321  F        0       0.00000000       0.00000000       0.00000000       0.00000000       0.00000000       0.00000000
Ti       9.47948706       6.30592060      11.97604311  F        0       0.00000000       0.00000000       0.00000000       0.00000000       0.00000000       0.00000000
Ti       9.73809540       2.67728949       7.50494325  F        0       0.00000000       0.00000000       0.00000000       0.00000000       0.00000000       0.00000000
Ti       6.25723830       1.75546535      15.53971527  T        1      -0.00781000      -0.00064700      -0.00795800      -0.00781000      -0.00064700      -0.00795800
Ti       7.70806852       7.78614405      18.06397923  T        1      -0.00654300       0.03461500      -0.02432700      -0.00654300       0.03461500      -0.02432700
Ti       7.86458647       4.03802586      13.72320306  F        0       0.00000000       0.00000000       0.00000000       0.00000000       0.00000000       0.00000000
W        4.77570212       6.48217010       7.85711324  F        0       0.00000000       0.00000000       0.00000000       0.00000000       0.00000000       0.00000000
W       10.26692450       4.21427536       9.98882043  F        0       0.00000000       0.00000000       0.00000000       0.00000000       0.00000000       0.00000000
W        3.41940987       0.58564436       5.13317239  F        0       0.00000000       0.00000000       0.00000000       0.00000000       0.00000000       0.00000000
W        6.85481513       2.32907510       7.47975099  F        0       0.00000000       0.00000000       0.00000000       0.00000000       0.00000000       0.00000000
W        5.23991477       0.06118059       9.22691095  F        0       0.00000000       0.00000000       0.00000000       0.00000000       0.00000000       0.00000000
W        8.46971571       4.59696960       5.73259103  F        0       0.00000000       0.00000000       0.00000000       0.00000000       0.00000000       0.00000000
W        6.04886639       4.42656040       9.45744455  F        0       0.00000000       0.00000000       0.00000000       0.00000000       0.00000000       0.00000000
W        4.43396580       2.15866590      11.20460451  F        0       0.00000000       0.00000000       0.00000000       0.00000000       0.00000000       0.00000000
W        7.66376698       6.69445467       7.71028554  F        0       0.00000000       0.00000000       0.00000000       0.00000000       0.00000000       0.00000000
W       10.00831592       7.84290659      14.45991999  F        0       0.00000000       0.00000000       0.00000000       0.00000000       0.00000000       0.00000000
W        8.41810447       5.55839572      16.30473945  T        1      -0.00194200      -0.00536100      -0.00753900      -0.00194200      -0.00536100      -0.00753900
W        8.65202343       1.94638109      11.73597848  F        0       0.00000000       0.00000000       0.00000000       0.00000000       0.00000000       0.00000000
W        4.98130643       3.68981171      13.69801080  F        0       0.00000000       0.00000000       0.00000000       0.00000000       0.00000000       0.00000000
W        3.36987003       1.48069144      15.40990403  T        1       0.00572300      -0.00458800      -0.00279500       0.00572300      -0.00458800      -0.00279500
W        6.59620678       5.95770645      11.95085084  F        0       0.00000000       0.00000000       0.00000000       0.00000000       0.00000000       0.00000000
W       11.29458452       5.79110645      15.97992139  T        1       0.00265000      -0.00112600       0.00387800       0.00265000      -0.00112600       0.00387800
W        9.60158467       3.49252431      17.71995616  T        1       0.01311400      -0.00269200      -0.01706000       0.01311400      -0.00269200      -0.01706000
W        5.79025805       8.05519152      13.92854601  F        0       0.00000000       0.00000000       0.00000000       0.00000000       0.00000000       0.00000000
P       11.77010977       2.47268867       9.11755311  F        0       0.00000000       0.00000000       0.00000000       0.00000000       0.00000000       0.00000000
P       10.15520918       0.20479417      10.86471307  F        0       0.00000000       0.00000000       0.00000000       0.00000000       0.00000000       0.00000000
P       13.38501036       4.74058342       7.37039411  F        0       0.00000000       0.00000000       0.00000000       0.00000000       0.00000000       0.00000000
P       16.87354553       7.99970627       8.64169699  F        0       0.00000000       0.00000000       0.00000000       0.00000000       0.00000000       0.00000000
P       15.25864470       5.73181200      10.38885629  F        0       0.00000000       0.00000000       0.00000000       0.00000000       0.00000000       0.00000000
P        1.30500853       2.10318065       5.14866287  F        0       0.00000000       0.00000000       0.00000000       0.00000000       0.00000000       0.00000000
P       10.31266940       0.27243435       8.00623167  F        0       0.00000000       0.00000000       0.00000000       0.00000000       0.00000000       0.00000000
P       11.66896117       6.16896009      10.73017251  F        0       0.00000000       0.00000000       0.00000000       0.00000000       0.00000000       0.00000000
P       11.92756999       2.54032898       6.25907171  F        0       0.00000000       0.00000000       0.00000000       0.00000000       0.00000000       0.00000000
P       15.25334990       2.94041348       9.85242021  F        0       0.00000000       0.00000000       0.00000000       0.00000000       0.00000000       0.00000000
P       13.63844931       0.67251897      11.59958017  F        0       0.00000000       0.00000000       0.00000000       0.00000000       0.00000000       0.00000000
P        2.65600550       5.20830822       7.33616763  F        0       0.00000000       0.00000000       0.00000000       0.00000000       0.00000000       0.00000000
P        2.79047835       3.83342552      14.95126754  F        0       0.00000000       0.00000000       0.00000000       0.00000000       0.00000000       0.00000000
P        1.07003466       1.96478820      16.85007521  T        1       0.00240400      -0.00948000      -0.00201400       0.00240400      -0.00948000      -0.00201400
P        4.40537894       6.10131979      13.20410758  F        0       0.00000000       0.00000000       0.00000000       0.00000000       0.00000000       0.00000000
P       12.02884352       1.19602299      13.88317621  F        0       0.00000000       0.00000000       0.00000000       0.00000000       0.00000000       0.00000000