23
Lattice="9.564628601074219 0.0 5.856645730551921e-16 -4.782314300537109 10.254205703735352 -0.13370586931705475 0.0 0.0 36.91453552246094" Properties=species:S:1:pos:R:3:move_mask:L:1:tags:I:1:DFT_forces:R:3:forces:R:3:magmoms:R:1 DFT_energy=-62.69612907 energy=-62.69612907 dipole="_JSON [[0.0, 0.0, 0.0]]" magmom=0.0 free_energy=-62.71079637 pbc="T T T"
Rb      -2.78532313       9.60911798      18.11447797  T        1       0.00601000       0.03557100       0.03268600       0.00601000       0.03557100       0.03268600       0.00000000
Rb       1.99901515       3.78931236      14.37764894  F        0       0.00000000       0.00000000       0.00000000       0.00641200      -0.03722400       0.01950500       0.00000000
Rb       1.99901515       8.91641521      11.23458562  F        0       0.00000000       0.00000000       0.00000000      -0.00076100      -0.02721300      -0.11994100       0.00000000
Rb       6.78132945       3.88721275      12.69532930  F        0       0.00000000       0.00000000       0.00000000      -0.00027200       0.03365800      -0.18582200       0.00000000
Rb      -2.78329915       9.01431537       9.55226503  F        0       0.00000000       0.00000000       0.00000000       0.00040800      -0.09733000       0.08829900       0.00000000
Rb       2.00262529       9.09037161      15.58946691  T        1       0.00058100       0.00516500       0.01734200       0.00058100       0.00516500       0.01734200       0.00000000
Te       1.99901515       3.83826256      10.46027815  F        0       0.00000000       0.00000000       0.00000000       0.00459400       0.40027400      -0.06457400       0.00000000
Te       6.79798728       3.15574121      17.10389673  T        1      -0.03263700       0.01060800      -0.01890700      -0.03263700       0.01060800      -0.01890700       0.00000000
Te      -2.78329915       8.96536517      13.46963582  F        0       0.00000000       0.00000000       0.00000000       0.00972800       0.38595300      -0.14370900       0.00000000
Te       4.25335795       0.86966276      13.41965448  F        0       0.00000000       0.00000000       0.00000000      -0.28108000      -0.07657500      -0.38708500       0.00000000
Te       4.25335771       5.99676543      10.27659116  F        0       0.00000000       0.00000000       0.00000000      -0.32352000      -0.05526900       0.67987600       0.00000000
Te      -1.40074748       6.51590461      16.57351003  T        1      -0.00814800       0.00825400      -0.02590500      -0.00814800       0.00825400      -0.02590500       0.00000000
Te      -0.51481622       1.60018444      16.81868517  T        1       0.01614800      -0.02803600       0.00263000       0.01614800      -0.02803600       0.00263000       0.00000000
Te      -0.52895635       6.80686200      13.65332494  F        0       0.00000000       0.00000000       0.00000000      -0.38509100      -0.20649600      -0.41263300       0.00000000
Te       4.25335795       1.67975950      10.64396536  F        0       0.00000000       0.00000000       0.00000000      -0.05539200      -0.02302300       0.34608700       0.00000000
Te       4.54516226       1.58109426      16.85271799  T        1       0.01312900       0.00789500      -0.01317700       0.01312900       0.00789500      -0.01317700       0.00000000
Te       4.52698642       6.80686200      13.65332494  F        0       0.00000000       0.00000000       0.00000000       0.37870000      -0.20455700      -0.42909700       0.00000000
Te      -0.25532764       1.67975950      10.64396536  F        0       0.00000000       0.00000000       0.00000000       0.07008900      -0.02146200       0.32706100       0.00000000
Te      -0.25532764       0.86966276      13.41965448  F        0       0.00000000       0.00000000       0.00000000       0.26569700      -0.06711800      -0.39520200       0.00000000
Te      -0.25532788       5.99676543      10.27659116  F        0       0.00000000       0.00000000       0.00000000       0.31089500      -0.03340600       0.68520300       0.00000000
Te       5.36633521       6.53428572      16.57246862  T        1       0.00701500      -0.00847200      -0.02457600       0.00701500      -0.00847200      -0.02457600       0.00000000
H        2.39115715       5.12710285      18.39041483  T        2      -0.01410900      -0.00647400       0.01021600      -0.01410900      -0.00647400       0.01021600       0.00000000
H        1.64665231       5.04544258      18.38494837  T        2       0.01160400       0.00527700       0.01172300       0.01160400       0.00527700       0.01172300       0.00000000
23
Lattice="9.564628601074219 0.0 5.856645730551921e-16 -4.782314300537109 10.254205703735352 -0.13370586931705475 0.0 0.0 36.91453552246094" Properties=species:S:1:pos:R:3:move_mask:L:1:tags:I:1:DFT_forces:R:3:forces:R:3 DFT_energy=-62.65905351 energy=-62.65905351 pbc="T T T"
Rb      -2.37126635       9.53529859      18.29260186  T        1      -0.01559300      -0.00672500      -0.00692700      -0.01559300      -0.00672500      -0.00692700
Rb       1.99901515       3.78931236      14.37764894  F        0       0.00000000       0.00000000       0.00000000       0.00000000       0.00000000       0.00000000
Rb       1.99901515       8.91641521      11.23458562  F        0       0.00000000       0.00000000       0.00000000       0.00000000       0.00000000       0.00000000
Rb       6.78132945       3.88721275      12.69532930  F        0       0.00000000       0.00000000       0.00000000       0.00000000       0.00000000       0.00000000
Rb      -2.78329915       9.01431537       9.55226503  F        0       0.00000000       0.00000000       0.00000000       0.00000000       0.00000000       0.00000000
Rb       2.02908960       9.10322785      15.61063236  T        1      -0.00228700       0.00534400       0.00554500      -0.00228700       0.00534400       0.00554500
Te       1.99901515       3.83826256      10.46027815  F        0       0.00000000       0.00000000       0.00000000       0.00000000       0.00000000       0.00000000
Te       7.26390326       2.41266796      18.38637296  T        1      -0.02425000      -0.04325100       0.03895200      -0.02425000      -0.04325100       0.03895200
Te      -2.78329915       8.96536517      13.46963582  F        0       0.00000000       0.00000000       0.00000000       0.00000000       0.00000000       0.00000000
Te       4.25335795       0.86966276      13.41965448  F        0       0.00000000       0.00000000       0.00000000       0.00000000       0.00000000       0.00000000
Te       4.25335771       5.99676543      10.27659116  F        0       0.00000000       0.00000000       0.00000000       0.00000000       0.00000000       0.00000000
Te      -1.23918068       6.37856127      16.50004253  T        1      -0.02719500      -0.00507600      -0.01668100      -0.02719500      -0.00507600      -0.01668100
Te      -0.24495140       1.31180236      16.93439684  T        1       0.00113100       0.00541000       0.01353100       0.00113100       0.00541000       0.01353100
Te      -0.52895635       6.80686200      13.65332494  F        0       0.00000000       0.00000000       0.00000000       0.00000000       0.00000000       0.00000000
Te       4.25335795       1.67975950      10.64396536  F        0       0.00000000       0.00000000       0.00000000       0.00000000       0.00000000       0.00000000
Te       4.90151751       1.72715011      17.18887233  T        1      -0.00765000       0.00495400       0.01292500      -0.00765000       0.00495400       0.01292500
Te       4.52698642       6.80686200      13.65332494  F        0       0.00000000       0.00000000       0.00000000       0.00000000       0.00000000       0.00000000
Te      -0.25532764       1.67975950      10.64396536  F        0       0.00000000       0.00000000       0.00000000       0.00000000       0.00000000       0.00000000
Te      -0.25532764       0.86966276      13.41965448  F        0       0.00000000       0.00000000       0.00000000       0.00000000       0.00000000       0.00000000
Te      -0.25532788       5.99676543      10.27659116  F        0       0.00000000       0.00000000       0.00000000       0.00000000       0.00000000       0.00000000
Te       5.56478679       6.50181324      16.52010531  T        1      -0.04963600       0.00062300      -0.01953500      -0.04963600       0.00062300      -0.01953500
H        2.35167504       6.30334450      17.94205143  T        2      -0.10888300      -0.01675000       0.04424900      -0.10888300      -0.01675000       0.04424900
H        3.01902206       5.98214012      17.82857980  T        2      -0.02307000      -0.00393900       0.02347100      -0.02307000      -0.00393900       0.02347100
23
Lattice="9.564628601074219 0.0 5.856645730551921e-16 -4.782314300537109 10.254205703735352 -0.13370586931705475 0.0 0.0 36.91453552246094" Properties=species:S:1:pos:R:3:move_mask:L:1:tags:I:1:DFT_forces:R:3:forces:R:3 DFT_energy=-62.54840773 energy=-62.54840773 pbc="T T T"
Rb      -2.25177096       9.55025823      18.33980923  T        1      -0.02250800       0.00030000      -0.01006600      -0.02250800       0.00030000      -0.01006600
Rb       1.99901515       3.78931236      14.37764894  F        0       0.00000000       0.00000000       0.00000000       0.00000000       0.00000000       0.00000000
Rb       1.99901515       8.91641521      11.23458562  F        0       0.00000000       0.00000000       0.00000000       0.00000000       0.00000000       0.00000000
Rb       6.78132945       3.88721275      12.69532930  F        0       0.00000000       0.00000000       0.00000000       0.00000000       0.00000000       0.00000000
Rb      -2.78329915       9.01431537       9.55226503  F        0       0.00000000       0.00000000       0.00000000       0.00000000       0.00000000       0.00000000
Rb       2.01086265       9.09841120      15.57580384  T        1       0.00127400       0.00883100      -0.00415300       0.00127400       0.00883100      -0.00415300
Te       1.99901515       3.83826256      10.46027815  F        0       0.00000000       0.00000000       0.00000000       0.00000000       0.00000000       0.00000000
Te       7.38269281       2.51100200      18.24065501  T        1      -0.00676300      -0.00352400       0.06046100      -0.00676300      -0.00352400       0.06046100
Te      -2.78329915       8.96536517      13.46963582  F        0       0.00000000       0.00000000       0.00000000       0.00000000       0.00000000       0.00000000
Te       4.25335795       0.86966276      13.41965448  F        0       0.00000000       0.00000000       0.00000000       0.00000000       0.00000000       0.00000000
Te       4.25335771       5.99676543      10.27659116  F        0       0.00000000       0.00000000       0.00000000       0.00000000       0.00000000       0.00000000
Te      -1.08294772       6.42092583      16.51742829  T        1      -0.05472700      -0.01148000       0.00672300      -0.05472700      -0.01148000       0.00672300
Te      -0.18202162       1.20591244      16.89144293  T        1       0.00405300       0.00946200      -0.00155200       0.00405300       0.00946200      -0.00155200
Te      -0.52895635       6.80686200      13.65332494  F        0       0.00000000       0.00000000       0.00000000       0.00000000       0.00000000       0.00000000
Te       4.25335795       1.67975950      10.64396536  F        0       0.00000000       0.00000000       0.00000000       0.00000000       0.00000000       0.00000000
Te       4.97526515       1.77795905      17.17817190  T        1      -0.02111900      -0.01345900       0.01486000      -0.02111900      -0.01345900       0.01486000
Te       4.52698642       6.80686200      13.65332494  F        0       0.00000000       0.00000000       0.00000000       0.00000000       0.00000000       0.00000000
Te      -0.25532764       1.67975950      10.64396536  F        0       0.00000000       0.00000000       0.00000000       0.00000000       0.00000000       0.00000000
Te      -0.25532764       0.86966276      13.41965448  F        0       0.00000000       0.00000000       0.00000000       0.00000000       0.00000000       0.00000000
Te      -0.25532788       5.99676543      10.27659116  F        0       0.00000000       0.00000000       0.00000000       0.00000000       0.00000000       0.00000000
Te       5.73099213       6.52518446      16.58486135  T        1      -0.06581200      -0.00589400      -0.05284300      -0.06581200      -0.00589400      -0.05284300
H        2.73915566       6.42546948      17.75971033  T        2      -0.14360500      -0.03346500       0.06418300      -0.14360500      -0.03346500       0.06418300
H        3.23372279       5.86583745      17.69415167  T        2      -0.07395400      -0.00496900       0.03747100      -0.07395400      -0.00496900       0.03747100
23
Lattice="9.564628601074219 0.0 5.856645730551921e-16 -4.782314300537109 10.254205703735352 -0.13370586931705475 0.0 0.0 36.91453552246094" Properties=species:S:1:pos:R:3:move_mask:L:1:tags:I:1:DFT_forces:R:3:forces:R:3 DFT_energy=-62.39816599 energy=-62.39816599 pbc="T T T"
Rb      -2.18770613       9.56487723      18.36093870  T        1      -0.03045800       0.00809700      -0.00062000      -0.03045800       0.00809700      -0.00062000
Rb       1.99901515       3.78931236      14.37764894  F        0       0.00000000       0.00000000       0.00000000       0.00000000       0.00000000       0.00000000
Rb       1.99901515       8.91641521      11.23458562  F        0       0.00000000       0.00000000       0.00000000       0.00000000       0.00000000       0.00000000
Rb       6.78132945       3.88721275      12.69532930  F        0       0.00000000       0.00000000       0.00000000       0.00000000       0.00000000       0.00000000
Rb      -2.78329915       9.01431537       9.55226503  F        0       0.00000000       0.00000000       0.00000000       0.00000000       0.00000000       0.00000000
Rb       2.01143145       9.07388559      15.56665385  T        1       0.00727200       0.02252800      -0.01524700       0.00727200       0.02252800      -0.01524700
Te       1.99901515       3.83826256      10.46027815  F        0       0.00000000       0.00000000       0.00000000       0.00000000       0.00000000       0.00000000
Te       7.39685869       2.60240088      18.10411202  T        1      -0.01847700      -0.03316000       0.03505400      -0.01847700      -0.03316000       0.03505400
Te      -2.78329915       8.96536517      13.46963582  F        0       0.00000000       0.00000000       0.00000000       0.00000000       0.00000000       0.00000000
Te       4.25335795       0.86966276      13.41965448  F        0       0.00000000       0.00000000       0.00000000       0.00000000       0.00000000       0.00000000
Te       4.25335771       5.99676543      10.27659116  F        0       0.00000000       0.00000000       0.00000000       0.00000000       0.00000000       0.00000000
Te      -0.93608319       6.44981635      16.53062628  T        1      -0.02701600      -0.00221800       0.00393200      -0.02701600      -0.00221800       0.00393200
Te      -0.16973099       1.17902179      16.88028940  T        1      -0.01043400       0.00382300      -0.00411600      -0.01043400       0.00382300      -0.00411600
Te      -0.52895635       6.80686200      13.65332494  F        0       0.00000000       0.00000000       0.00000000       0.00000000       0.00000000       0.00000000
Te       4.25335795       1.67975950      10.64396536  F        0       0.00000000       0.00000000       0.00000000       0.00000000       0.00000000       0.00000000
Te       4.98359227       1.77831732      17.11841966  T        1       0.00323400       0.00999600       0.00157200       0.00323400       0.00999600       0.00157200
Te       4.52698642       6.80686200      13.65332494  F        0       0.00000000       0.00000000       0.00000000       0.00000000       0.00000000       0.00000000
Te      -0.25532764       1.67975950      10.64396536  F        0       0.00000000       0.00000000       0.00000000       0.00000000       0.00000000       0.00000000
Te      -0.25532764       0.86966276      13.41965448  F        0       0.00000000       0.00000000       0.00000000       0.00000000       0.00000000       0.00000000
Te      -0.25532788       5.99676543      10.27659116  F        0       0.00000000       0.00000000       0.00000000       0.00000000       0.00000000       0.00000000
Te       5.89303698       6.53304341      16.70928914  T        1      -0.00552700      -0.00579100      -0.06107800      -0.00552700      -0.00579100      -0.06107800
H        3.14964070       6.55576547      17.58836818  T        2      -0.19769900      -0.04330000       0.08297400      -0.19769900      -0.04330000       0.08297400
H        3.44213951       5.86410101      17.59702703  T        2      -0.16107800      -0.00254500       0.05424100      -0.16107800      -0.00254500       0.05424100
23
Lattice="9.564628601074219 0.0 5.856645730551921e-16 -4.782314300537109 10.254205703735352 -0.13370586931705475 0.0 0.0 36.91453552246094" Properties=species:S:1:pos:R:3:move_mask:L:1:tags:I:1:DFT_forces:R:3:forces:R:3 DFT_energy=-62.13321796 energy=-62.13321796 pbc="T T T"
Rb      -2.13269205       9.54558257      18.35781589  T        1      -0.04234900       0.03996500       0.01564400      -0.04234900       0.03996500       0.01564400
Rb       1.99901515       3.78931236      14.37764894  F        0       0.00000000       0.00000000       0.00000000       0.00000000       0.00000000       0.00000000
Rb       1.99901515       8.91641521      11.23458562  F        0       0.00000000       0.00000000       0.00000000       0.00000000       0.00000000       0.00000000
Rb       6.78132945       3.88721275      12.69532930  F        0       0.00000000       0.00000000       0.00000000       0.00000000       0.00000000       0.00000000
Rb      -2.78329915       9.01431537       9.55226503  F        0       0.00000000       0.00000000       0.00000000       0.00000000       0.00000000       0.00000000
Rb       2.00882455       9.02764044      15.61128861  T        1       0.02292800       0.05463300      -0.02870700       0.02292800       0.05463300      -0.02870700
Te       1.99901515       3.83826256      10.46027815  F        0       0.00000000       0.00000000       0.00000000       0.00000000       0.00000000       0.00000000
Te       7.42284224       2.64619016      18.04176971  T        1      -0.00284100      -0.01926100       0.01814600      -0.00284100      -0.01926100       0.01814600
Te      -2.78329915       8.96536517      13.46963582  F        0       0.00000000       0.00000000       0.00000000       0.00000000       0.00000000       0.00000000
Te       4.25335795       0.86966276      13.41965448  F        0       0.00000000       0.00000000       0.00000000       0.00000000       0.00000000       0.00000000
Te       4.25335771       5.99676543      10.27659116  F        0       0.00000000       0.00000000       0.00000000       0.00000000       0.00000000       0.00000000
Te      -0.92554767       6.44596392      16.51998533  T        1      -0.03094300       0.02743200       0.04583000      -0.03094300       0.02743200       0.04583000
Te      -0.14479670       1.18177811      16.86906886  T        1      -0.01955100      -0.02252300      -0.00797300      -0.01955100      -0.02252300      -0.00797300
Te      -0.52895635       6.80686200      13.65332494  F        0       0.00000000       0.00000000       0.00000000       0.00000000       0.00000000       0.00000000
Te       4.25335795       1.67975950      10.64396536  F        0       0.00000000       0.00000000       0.00000000       0.00000000       0.00000000       0.00000000
Te       4.99800227       1.78787842      17.12203770  T        1       0.00225300       0.00225800      -0.00416500       0.00225300       0.00225800      -0.00416500
Te       4.52698642       6.80686200      13.65332494  F        0       0.00000000       0.00000000       0.00000000       0.00000000       0.00000000       0.00000000
Te      -0.25532764       1.67975950      10.64396536  F        0       0.00000000       0.00000000       0.00000000       0.00000000       0.00000000       0.00000000
Te      -0.25532764       0.86966276      13.41965448  F        0       0.00000000       0.00000000       0.00000000       0.00000000       0.00000000       0.00000000
Te      -0.25532788       5.99676543      10.27659116  F        0       0.00000000       0.00000000       0.00000000       0.00000000       0.00000000       0.00000000
Te       5.88770566       6.55632010      16.81921981  T        1       0.66237200      -0.03354300      -0.25493300       0.66237200      -0.03354300      -0.25493300
H        3.50711916       6.60867594      17.44210255  T        2      -0.41439700      -0.29332600       0.17228400      -0.41439700      -0.29332600       0.17228400
H        3.75718114       5.88531420      17.50792397  T        2      -0.53182500       0.21258400       0.09644200      -0.53182500       0.21258400       0.09644200
23
Lattice="9.564628601074219 0.0 5.856645730551921e-16 -4.782314300537109 10.254205703735352 -0.13370586931705475 0.0 0.0 36.91453552246094" Properties=species:S:1:pos:R:3:move_mask:L:1:tags:I:1:DFT_forces:R:3:forces:R:3 DFT_energy=-61.2906285 energy=-61.2906285 pbc="T T T"
Rb      -2.11433880       9.53581268      18.35295400  T        1      -0.04340600       0.00428100       0.00351700      -0.04340600       0.00428100       0.00351700
Rb       1.99901515       3.78931236      14.37764894  F        0       0.00000000       0.00000000       0.00000000       0.00000000       0.00000000       0.00000000
Rb       1.99901515       8.91641521      11.23458562  F        0       0.00000000       0.00000000       0.00000000       0.00000000       0.00000000       0.00000000
Rb       6.78132945       3.88721275      12.69532930  F        0       0.00000000       0.00000000       0.00000000       0.00000000       0.00000000       0.00000000
Rb      -2.78329915       9.01431537       9.55226503  F        0       0.00000000       0.00000000       0.00000000       0.00000000       0.00000000       0.00000000
Rb       2.00085683       9.00994771      15.62210491  T        1       0.01964200       0.03392900      -0.00974200       0.01964200       0.03392900      -0.00974200
Te       1.99901515       3.83826256      10.46027815  F        0       0.00000000       0.00000000       0.00000000       0.00000000       0.00000000       0.00000000
Te       7.42566497       2.65191936      18.03468249  T        1      -0.00069900      -0.00617400       0.00093200      -0.00069900      -0.00617400       0.00093200
Te      -2.78329915       8.96536517      13.46963582  F        0       0.00000000       0.00000000       0.00000000       0.00000000       0.00000000       0.00000000
Te       4.25335795       0.86966276      13.41965448  F        0       0.00000000       0.00000000       0.00000000       0.00000000       0.00000000       0.00000000
Te       4.25335771       5.99676543      10.27659116  F        0       0.00000000       0.00000000       0.00000000       0.00000000       0.00000000       0.00000000
Te      -0.91402929       6.43860354      16.50288026  T        1      -0.38943000       0.08180500       0.08487900      -0.38943000       0.08180500       0.08487900
Te      -0.14051293       1.18658452      16.87170960  T        1      -0.02218900       0.00497400       0.00048600      -0.02218900       0.00497400       0.00048600
Te      -0.52895635       6.80686200      13.65332494  F        0       0.00000000       0.00000000       0.00000000       0.00000000       0.00000000       0.00000000
Te       4.25335795       1.67975950      10.64396536  F        0       0.00000000       0.00000000       0.00000000       0.00000000       0.00000000       0.00000000
Te       4.99651026       1.79022629      17.12513007  T        1       0.01955100       0.00436400      -0.00418300       0.01955100       0.00436400      -0.00418300
Te       4.52698642       6.80686200      13.65332494  F        0       0.00000000       0.00000000       0.00000000       0.00000000       0.00000000       0.00000000
Te      -0.25532764       1.67975950      10.64396536  F        0       0.00000000       0.00000000       0.00000000       0.00000000       0.00000000       0.00000000
Te      -0.25532764       0.86966276      13.41965448  F        0       0.00000000       0.00000000       0.00000000       0.00000000       0.00000000       0.00000000
Te      -0.25532788       5.99676543      10.27659116  F        0       0.00000000       0.00000000       0.00000000       0.00000000       0.00000000       0.00000000
Te       5.65916062       6.56173656      16.90584218  T        1       1.65659900      -0.05389600      -0.43346200       1.65659900      -0.05389600      -0.43346200
H        3.64744123       6.71364320      17.38234373  T        2      -0.23648600      -1.59615900       0.35296300      -0.23648600      -1.59615900       0.35296300
H        3.94373654       5.80687329      17.47222020  T        2      -1.13481000       1.52241200      -0.01377500      -1.13481000       1.52241200      -0.01377500
23
Lattice="9.564628601074219 0.0 5.856645730551921e-16 -4.782314300537109 10.254205703735352 -0.13370586931705475 0.0 0.0 36.91453552246094" Properties=species:S:1:pos:R:3:move_mask:L:1:tags:I:1:DFT_forces:R:3:forces:R:3 DFT_energy=-60.75494119 energy=-60.75494119 pbc="T T T"
Rb      -2.10983163       9.53535633      18.35257676  T        1      -0.00014500      -0.00049400       0.00008200      -0.00014500      -0.00049400       0.00008200
Rb       1.99901515       3.78931236      14.37764894  F        0       0.00000000       0.00000000       0.00000000       0.00000000       0.00000000       0.00000000
Rb       1.99901515       8.91641521      11.23458562  F        0       0.00000000       0.00000000       0.00000000       0.00000000       0.00000000       0.00000000
Rb       6.78132945       3.88721275      12.69532930  F        0       0.00000000       0.00000000       0.00000000       0.00000000       0.00000000       0.00000000
Rb      -2.78329915       9.01431537       9.55226503  F        0       0.00000000       0.00000000       0.00000000       0.00000000       0.00000000       0.00000000
Rb       1.99931933       9.00670450      15.62377547  T        1       0.00098200       0.00051900       0.00430700       0.00098200       0.00051900       0.00430700
Te       1.99901515       3.83826256      10.46027815  F        0       0.00000000       0.00000000       0.00000000       0.00000000       0.00000000       0.00000000
Te       7.42631893       2.65183014      18.03503276  T        1       0.00243800      -0.00250200       0.00263600       0.00243800      -0.00250200       0.00263600
Te      -2.78329915       8.96536517      13.46963582  F        0       0.00000000       0.00000000       0.00000000       0.00000000       0.00000000       0.00000000
Te       4.25335795       0.86966276      13.41965448  F        0       0.00000000       0.00000000       0.00000000       0.00000000       0.00000000       0.00000000
Te       4.25335771       5.99676543      10.27659116  F        0       0.00000000       0.00000000       0.00000000       0.00000000       0.00000000       0.00000000
Te      -0.87314713       6.43060720      16.49431468  T        1      -0.00604900       0.00373100      -0.00392200      -0.00604900       0.00373100      -0.00392200
Te      -0.13873152       1.18655278      16.87156546  T        1       0.00299900      -0.00177400      -0.00009900       0.00299900      -0.00177400      -0.00009900
Te      -0.52895635       6.80686200      13.65332494  F        0       0.00000000       0.00000000       0.00000000       0.00000000       0.00000000       0.00000000
Te       4.25335795       1.67975950      10.64396536  F        0       0.00000000       0.00000000       0.00000000       0.00000000       0.00000000       0.00000000
Te       4.99593429       1.79013624      17.12565244  T        1       0.01147600       0.00582700      -0.00156300       0.01147600       0.00582700      -0.00156300
Te       4.52698642       6.80686200      13.65332494  F        0       0.00000000       0.00000000       0.00000000       0.00000000       0.00000000       0.00000000
Te      -0.25532764       1.67975950      10.64396536  F        0       0.00000000       0.00000000       0.00000000       0.00000000       0.00000000       0.00000000
Te      -0.25532764       0.86966276      13.41965448  F        0       0.00000000       0.00000000       0.00000000       0.00000000       0.00000000       0.00000000
Te      -0.25532788       5.99676543      10.27659116  F        0       0.00000000       0.00000000       0.00000000       0.00000000       0.00000000       0.00000000
Te       5.48901402       6.56657756      16.94990970  T        1       0.01063100      -0.00101500       0.00391000       0.01063100      -0.00101500       0.00391000
H        3.67172909       6.87619225      17.34638976  T        2       0.00032700      -0.00024600      -0.00088100       0.00032700      -0.00024600      -0.00088100
H        4.06023073       5.65188781      17.47352103  T        2       0.00014100      -0.00120200       0.00088500       0.00014100      -0.00120200       0.00088500
23
Lattice="9.564628601074219 0.0 5.856645730551921e-16 -4.782314300537109 10.254205703735352 -0.13370586931705475 0.0 0.0 36.91453552246094" Properties=species:S:1:pos:R:3:move_mask:L:1:tags:I:1:DFT_forces:R:3:forces:R:3 DFT_energy=-61.29718172 energy=-61.29718172 pbc="T T T"
Rb      -2.09636593       9.52832826      18.34733252  T        1       0.03955000      -0.01719700      -0.01694400       0.03955000      -0.01719700      -0.01694400