89
Lattice="14.160551071166992 2.7887538475376926e-31 2.2771902686945364e-15 2.005678939649854e-15 7.080275535583496 -3.7576065063476562 -0.0 4.6017406905689024e-15 37.57606506347656" Properties=species:S:1:pos:R:3:move_mask:L:1:tags:I:1:DFT_forces:R:3:forces:R:3:magmoms:R:1 DFT_energy=-596.05654562 energy=-596.05654562 dipole="_JSON [[0.0, 0.0, 0.0]]" magmom=0.0 free_energy=-596.11085183 pbc="T T T"
Y        4.72249208       0.89906762      16.36556352  T        1       0.00376600      -0.02985700       0.00838300       0.00376600      -0.02985700       0.00838300       0.00000000
Y        1.09962279       4.38202752      14.39248128  T        1       0.00372500      -0.02167600       0.00904700       0.00372500      -0.02167600       0.00904700       0.00000000
Fe       7.16034842       0.16212869      14.39495659  F        0       0.00000000       0.00000000       0.00000000      -0.21269600       0.19600300      -0.18414600       0.00000000
Fe       2.14279377       1.37569499      14.39495659  F        0       0.00000000       0.00000000       0.00000000       0.00952100      -0.43129600      -0.71720300       0.00000000
Fe       5.68293142       3.70226669      12.51615334  F        0       0.00000000       0.00000000       0.00000000       0.22486700       0.60331500      -0.40959700       0.00000000
Fe       3.62021041       4.91583261      12.51615334  F        0       0.00000000       0.00000000       0.00000000      -0.05442500      -0.33751500      -0.61387200       0.00000000
Fe       4.02569766       3.32391915      14.39709419  T        1       0.01426200       0.03745200       0.01184000       0.01426200       0.03745200       0.01184000       0.00000000
Fe       5.15480568       5.24786022      14.24691127  T        1      -0.00933500       0.01147600       0.02975300      -0.00933500       0.01147600       0.02975300       0.00000000
Fe       7.38346409       1.84743321      16.20579056  T        1      -0.02968000      -0.00271400       0.00340700      -0.02968000      -0.00271400       0.00340700       0.00000000
Fe       1.70130383       6.89038444      12.55102855  T        1       0.00140100       0.02032800      -0.01211600       0.00140100       0.02032800      -0.01211600       0.00000000
Si       3.14796657       6.32025155      14.31061051  T        1       0.02073400      -0.02394800       0.02792600       0.02073400      -0.02394800       0.02792600       0.00000000
Si       6.17959283       2.33336397      14.35525725  T        1      -0.01557000       0.02061200      -0.00163800      -0.01557000       0.02061200      -0.00163800       0.00000000
Si       2.61379199       2.77864930      16.19383239  T        1      -0.01450300      -0.00720600      -0.00015800      -0.01450300      -0.00720600      -0.00015800       0.00000000
Si       6.73591245       5.94954954      12.60365877  T        1      -0.00382100      -0.00326800       0.01827200      -0.00382100      -0.00326800       0.01827200       0.00000000
Y        4.65157104       0.76891184      12.51615334  F        0       0.00000000       0.00000000       0.00000000      -0.10336600      -0.03049300       0.00593600       0.00000000
Y        1.11143312       4.30904961      10.63734913  F        0       0.00000000       0.00000000       0.00000000      -0.03624000       0.06973400       0.06291900       0.00000000
Fe       7.16034842       0.16212869      10.63734913  F        0       0.00000000       0.00000000       0.00000000      -0.00483300       0.19954000       0.03817700       0.00000000
Fe       2.14279377       1.37569499      10.63734913  F        0       0.00000000       0.00000000       0.00000000      -0.02284000      -0.30354900      -0.04835000       0.00000000
Fe       5.68293142       3.70226669       8.75854588  F        0       0.00000000       0.00000000       0.00000000      -0.00841300       0.15893000       0.05469000       0.00000000
Fe       3.62021041       4.91583261       8.75854683  F        0       0.00000000       0.00000000       0.00000000       0.03040200      -0.28270000      -0.04498200       0.00000000
Fe       4.04478788       3.27768898      10.63734913  F        0       0.00000000       0.00000000       0.00000000       0.33747700      -0.05830900      -0.07893300       0.00000000
Fe       5.25835419       5.34041011      10.63735008  F        0       0.00000000       0.00000000       0.00000000       0.02603500       0.05574800       0.24650600       0.00000000
Fe       7.58492565       1.80027246      12.51615334  F        0       0.00000000       0.00000000       0.00000000       0.11317900       0.04419800       0.07850100       0.00000000
Fe       1.71821624       6.81782675       8.75854683  F        0       0.00000000       0.00000000       0.00000000      -0.33592800      -0.09288900      -0.01723000       0.00000000
Si       3.10001659       6.29763305      10.63735008  F        0       0.00000000       0.00000000       0.00000000       0.19709400       0.25944000       0.53471900       0.00000000
Si       6.20312548       2.32046604      10.63734913  F        0       0.00000000       0.00000000       0.00000000      -0.08239300      -0.09976600      -0.10660100       0.00000000
Si       2.66298747       2.75749540      12.51615334  F        0       0.00000000       0.00000000       0.00000000      -0.15180300       0.15069400       0.25172300       0.00000000
Si       6.64015436       5.86060381       8.75854683  F        0       0.00000000       0.00000000       0.00000000       0.06887400      -0.08592300      -0.01377100       0.00000000
Y        4.65157104       0.76891184       8.75854588  F        0       0.00000000       0.00000000       0.00000000      -0.33986400      -0.21765200      -0.34968700       0.00000000
Y        1.11143312       4.30904961       6.87974262  F        0       0.00000000       0.00000000       0.00000000       0.34086800      -0.22037500      -0.35700200       0.00000000
Fe       7.16034842       0.16212869       6.87974262  F        0       0.00000000       0.00000000       0.00000000       0.57392400       0.91789800       1.25232300       0.00000000
Fe       2.14279377       1.37569499       6.87974262  F        0       0.00000000       0.00000000       0.00000000      -0.65732300      -0.00106400       1.61742600       0.00000000
Fe       5.68293142       3.70226669       5.00093937  F        0       0.00000000       0.00000000       0.00000000      -0.58976400       0.90934900       1.24436800       0.00000000
Fe       3.62021041       4.91583261       5.00093937  F        0       0.00000000       0.00000000       0.00000000       0.66078900       0.00137800       1.61526100       0.00000000
Fe       4.04478788       3.27768898       6.87974262  F        0       0.00000000       0.00000000       0.00000000      -0.14223500       0.15804400      -0.47114200       0.00000000
Fe       5.25835419       5.34041011       6.87974262  F        0       0.00000000       0.00000000       0.00000000      -0.49532300      -0.19927700      -0.58751000       0.00000000
Fe       7.58492565       1.80027246       8.75854588  F        0       0.00000000       0.00000000       0.00000000       0.48450200      -0.20279100      -0.60429400       0.00000000
Fe       1.71821624       6.81782675       5.00093937  F        0       0.00000000       0.00000000       0.00000000       0.14376100       0.15605700      -0.46947100       0.00000000
Si       3.10001659       6.29763305       6.87974262  F        0       0.00000000       0.00000000       0.00000000       0.05230800      -0.06369100      -0.23992100       0.00000000
Si       6.20312548       2.32046604       6.87974262  F        0       0.00000000       0.00000000       0.00000000      -0.45229700      -0.47579200      -0.89366300       0.00000000
Si       2.66298747       2.75749540       8.75854588  F        0       0.00000000       0.00000000       0.00000000      -0.05423300      -0.05961700      -0.22367200       0.00000000
Si       6.64015436       5.86060381       5.00093937  F        0       0.00000000       0.00000000       0.00000000       0.45712100      -0.48803900      -0.88855100       0.00000000
Y       11.84581641       0.80794047      16.31184486  T        1       0.00174400       0.00232400      -0.00496500       0.00174400       0.00232400      -0.00496500       0.00000000
Y        8.15751558       4.37067976      14.61233467  T        1       0.01416000      -0.00222600      -0.00604000       0.01416000      -0.00222600      -0.00604000       0.00000000
Fe       0.08007240       0.16212869      14.39495659  F        0       0.00000000       0.00000000       0.00000000      -0.10531200       0.29875400      -0.22301400       0.00000000
Fe       9.22306919       1.37569499      14.39495659  F        0       0.00000000       0.00000000       0.00000000      -0.03133300      -0.48945700      -0.99587000       0.00000000
Fe      12.76320744       3.70226669      12.51615334  F        0       0.00000000       0.00000000       0.00000000       0.04090000       0.05638500      -0.30399300       0.00000000
Fe      10.70048618       4.91583261      12.51615334  F        0       0.00000000       0.00000000       0.00000000       0.04148400      -0.44838400      -0.47923000       0.00000000
Fe      11.04953899       3.26868115      14.46737426  T        1      -0.01069000      -0.01900800       0.02590800      -0.01069000      -0.01900800       0.02590800       0.00000000
Fe      12.23585500       5.14370244      14.30661912  T        1      -0.01167200       0.03661000       0.00655200      -0.01167200       0.03661000       0.00655200       0.00000000
Fe       0.60468603       1.71988643      16.14517099  T        1       0.03813800       0.00768700       0.02648600       0.03813800       0.00768700       0.02648600       0.00000000
Fe       8.93369707       6.91795983      12.55846730  T        1      -0.02105400       0.00084600       0.00177800      -0.02105400       0.00084600       0.00177800       0.00000000
Si      10.27481038       6.28281766      14.35110715  T        1      -0.00124100       0.01535800       0.00343900      -0.00124100       0.01535800       0.00343900       0.00000000
Si      13.26372229       2.38311034      14.45023246  T        1       0.00753800       0.00527700      -0.01807000       0.00753800       0.00527700      -0.01807000       0.00000000
Si       9.58425538       2.34336024      16.39357779  T        1       0.02852400      -0.01333000       0.01976900       0.02852400      -0.01333000       0.01976900       0.00000000
Si      13.73005438       5.85395781      12.56138592  T        1       0.01217900       0.00151600       0.00901600       0.01217900       0.00151600       0.00901600       0.00000000
Y       11.73184681       0.76891184      12.51615334  F        0       0.00000000       0.00000000       0.00000000       0.11307700       0.11321700       0.13330500       0.00000000
Y        8.19170856       4.30904961      10.63734913  F        0       0.00000000       0.00000000       0.00000000      -0.08505100       0.17145000       0.23407400       0.00000000
Fe       0.08007240       0.16212869      10.63734913  F        0       0.00000000       0.00000000       0.00000000       0.00497400       0.16326000       0.04454600       0.00000000
Fe       9.22306919       1.37569499      10.63734913  F        0       0.00000000       0.00000000       0.00000000       0.01418900      -0.35621900      -0.06692400       0.00000000
Fe      12.76320744       3.70226669       8.75854588  F        0       0.00000000       0.00000000       0.00000000      -0.00139300       0.13729800       0.01515900       0.00000000
Fe      10.70048618       4.91583261       8.75854683  F        0       0.00000000       0.00000000       0.00000000       0.03903500      -0.28385500      -0.05352600       0.00000000
Fe      11.12506390       3.27768898      10.63734913  F        0       0.00000000       0.00000000       0.00000000       0.28167900      -0.05905300       0.00381700       0.00000000
Fe      12.33862972       5.34041011      10.63735008  F        0       0.00000000       0.00000000       0.00000000      -0.10306700       0.09973500       0.17925600       0.00000000
Fe       0.50465012       1.80027246      12.51615334  F        0       0.00000000       0.00000000       0.00000000       0.05761000       0.05585500       0.19885200       0.00000000
Fe       8.79849195       6.81782675       8.75854683  F        0       0.00000000       0.00000000       0.00000000      -0.25185600      -0.08694300       0.06010500       0.00000000
Si      10.18029213       6.29763305      10.63735008  F        0       0.00000000       0.00000000       0.00000000       0.17162200       0.20473000       0.35793500       0.00000000
Si      13.28340054       2.32046604      10.63734913  F        0       0.00000000       0.00000000       0.00000000      -0.04583600      -0.15366700      -0.06926700       0.00000000
Si       9.74326324       2.75749540      12.51615334  F        0       0.00000000       0.00000000       0.00000000      -0.26804900       0.27882400       0.46336800       0.00000000
Si      13.72043037       5.86060381       8.75854683  F        0       0.00000000       0.00000000       0.00000000       0.05449500      -0.13587500      -0.07645800       0.00000000
Y       11.73184681       0.76891184       8.75854588  F        0       0.00000000       0.00000000       0.00000000      -0.33573500      -0.22012500      -0.34566700       0.00000000
Y        8.19170856       4.30904961       6.87974262  F        0       0.00000000       0.00000000       0.00000000       0.34203100      -0.22114300      -0.34804300       0.00000000
Fe       0.08007240       0.16212869       6.87974262  F        0       0.00000000       0.00000000       0.00000000       0.58667500       0.91853100       1.24639800       0.00000000
Fe       9.22306919       1.37569499       6.87974262  F        0       0.00000000       0.00000000       0.00000000      -0.65172400       0.01375000       1.61828100       0.00000000
Fe      12.76320744       3.70226669       5.00093937  F        0       0.00000000       0.00000000       0.00000000      -0.58506900       0.91149800       1.25016400       0.00000000
Fe      10.70048618       4.91583261       5.00093937  F        0       0.00000000       0.00000000       0.00000000       0.65485500      -0.00593500       1.60633400       0.00000000
Fe      11.12506390       3.27768898       6.87974262  F        0       0.00000000       0.00000000       0.00000000      -0.15183200       0.15719800      -0.47286800       0.00000000
Fe      12.33862972       5.34041011       6.87974262  F        0       0.00000000       0.00000000       0.00000000      -0.49225500      -0.19760100      -0.57574500       0.00000000
Fe       0.50465012       1.80027246       8.75854588  F        0       0.00000000       0.00000000       0.00000000       0.49194900      -0.20104400      -0.57326800       0.00000000
Fe       8.79849195       6.81782675       5.00093937  F        0       0.00000000       0.00000000       0.00000000       0.15582900       0.13944100      -0.46582100       0.00000000
Si      10.18029213       6.29763305       6.87974262  F        0       0.00000000       0.00000000       0.00000000       0.07878700      -0.06619200      -0.24320400       0.00000000
Si      13.28340054       2.32046604       6.87974262  F        0       0.00000000       0.00000000       0.00000000      -0.45310100      -0.48523500      -0.89191100       0.00000000
Si       9.74326324       2.75749540       8.75854588  F        0       0.00000000       0.00000000       0.00000000      -0.06832100      -0.06327600      -0.23791500       0.00000000
Si      13.72043037       5.86060381       5.00093937  F        0       0.00000000       0.00000000       0.00000000       0.45431400      -0.48222300      -0.89298700       0.00000000
C        6.29373534       2.65834925      17.76008323  T        2      -0.00790100      -0.02101500       0.04276200      -0.00790100      -0.02101500       0.04276200       0.00000000
C        7.08924693       3.52838607      16.91675350  T        2       0.00103200       0.01540700       0.01545000       0.00103200       0.01540700       0.01545000       0.00000000
H        5.21640473       2.96555397      17.76415301  T        2       0.01649600      -0.01661400       0.02518700       0.01649600      -0.01661400       0.02518700       0.00000000
H        6.65921670       2.42266562      18.77071165  T        2      -0.00507800      -0.00825300      -0.02619400      -0.00507800      -0.00825300      -0.02619400       0.00000000
O        7.20192150       4.77804147      16.69719542  T        2       0.03652800       0.00093000       0.00536600       0.03652800       0.00093000       0.00536600       0.00000000
89
Lattice="14.160551071166992 2.7887538475376926e-31 2.2771902686945364e-15 2.005678939649854e-15 7.080275535583496 -3.7576065063476562 -0.0 4.6017406905689024e-15 37.57606506347656" Properties=species:S:1:pos:R:3:move_mask:L:1:tags:I:1:DFT_forces:R:3:forces:R:3 DFT_energy=-595.74857118 energy=-595.74857118 pbc="T T T"
Y        4.72533906       0.89206767      16.42070986  T        1       0.05934300       0.03549200       0.00659300       0.05934300       0.03549200       0.00659300
Y        1.07509461       4.36392628      14.40167944  T        1       0.00290700       0.00237700       0.01611300       0.00290700       0.00237700       0.01611300
Fe       7.16034842       0.16212869      14.39495659  F        0       0.00000000       0.00000000       0.00000000       0.00000000       0.00000000       0.00000000
Fe       2.14279377       1.37569499      14.39495659  F        0       0.00000000       0.00000000       0.00000000       0.00000000       0.00000000       0.00000000
Fe       5.68293142       3.70226669      12.51615334  F        0       0.00000000       0.00000000       0.00000000       0.00000000       0.00000000       0.00000000
Fe       3.62021041       4.91583261      12.51615334  F        0       0.00000000       0.00000000       0.00000000       0.00000000       0.00000000       0.00000000
Fe       3.98355270       3.37687351      14.43176662  T        1      -0.00358300       0.00065200      -0.02242500      -0.00358300       0.00065200      -0.02242500
Fe       5.30884719       5.17531899      14.35529774  T        1      -0.10482900       0.06476400      -0.13097300      -0.10482900       0.06476400      -0.13097300
Fe       7.42728771       1.88335000      16.14206427  T        1       0.01687400       0.22259600      -0.04823400       0.01687400       0.22259600      -0.04823400
Fe       1.77267867       6.87819070      12.59946951  T        1      -0.00661200       0.01670000      -0.00773300      -0.00661200       0.01670000      -0.00773300
Si       3.25569617       6.14553376      14.39769586  T        1      -0.05683300       0.10672000      -0.04275900      -0.05683300       0.10672000      -0.04275900
Si       6.13906550       2.33806919      14.36041461  T        1       0.01050800       0.02280600      -0.01877800       0.01050800       0.02280600      -0.01877800
Si       2.58697110       2.72668791      16.22388679  T        1       0.01678000      -0.00205800       0.01146400       0.01678000      -0.00205800       0.01146400
Si       6.67447344       5.92614831      12.55707207  T        1       0.05292400      -0.00192400       0.00213100       0.05292400      -0.00192400       0.00213100
Y        4.65157104       0.76891184      12.51615334  F        0       0.00000000       0.00000000       0.00000000       0.00000000       0.00000000       0.00000000
Y        1.11143312       4.30904961      10.63734913  F        0       0.00000000       0.00000000       0.00000000       0.00000000       0.00000000       0.00000000
Fe       7.16034842       0.16212869      10.63734913  F        0       0.00000000       0.00000000       0.00000000       0.00000000       0.00000000       0.00000000
Fe       2.14279377       1.37569499      10.63734913  F        0       0.00000000       0.00000000       0.00000000       0.00000000       0.00000000       0.00000000
Fe       5.68293142       3.70226669       8.75854588  F        0       0.00000000       0.00000000       0.00000000       0.00000000       0.00000000       0.00000000
Fe       3.62021041       4.91583261       8.75854683  F        0       0.00000000       0.00000000       0.00000000       0.00000000       0.00000000       0.00000000
Fe       4.04478788       3.27768898      10.63734913  F        0       0.00000000       0.00000000       0.00000000       0.00000000       0.00000000       0.00000000
Fe       5.25835419       5.34041011      10.63735008  F        0       0.00000000       0.00000000       0.00000000       0.00000000       0.00000000       0.00000000
Fe       7.58492565       1.80027246      12.51615334  F        0       0.00000000       0.00000000       0.00000000       0.00000000       0.00000000       0.00000000
Fe       1.71821624       6.81782675       8.75854683  F        0       0.00000000       0.00000000       0.00000000       0.00000000       0.00000000       0.00000000
Si       3.10001659       6.29763305      10.63735008  F        0       0.00000000       0.00000000       0.00000000       0.00000000       0.00000000       0.00000000
Si       6.20312548       2.32046604      10.63734913  F        0       0.00000000       0.00000000       0.00000000       0.00000000       0.00000000       0.00000000
Si       2.66298747       2.75749540      12.51615334  F        0       0.00000000       0.00000000       0.00000000       0.00000000       0.00000000       0.00000000
Si       6.64015436       5.86060381       8.75854683  F        0       0.00000000       0.00000000       0.00000000       0.00000000       0.00000000       0.00000000
Y        4.65157104       0.76891184       8.75854588  F        0       0.00000000       0.00000000       0.00000000       0.00000000       0.00000000       0.00000000
Y        1.11143312       4.30904961       6.87974262  F        0       0.00000000       0.00000000       0.00000000       0.00000000       0.00000000       0.00000000
Fe       7.16034842       0.16212869       6.87974262  F        0       0.00000000       0.00000000       0.00000000       0.00000000       0.00000000       0.00000000
Fe       2.14279377       1.37569499       6.87974262  F        0       0.00000000       0.00000000       0.00000000       0.00000000       0.00000000       0.00000000
Fe       5.68293142       3.70226669       5.00093937  F        0       0.00000000       0.00000000       0.00000000       0.00000000       0.00000000       0.00000000
Fe       3.62021041       4.91583261       5.00093937  F        0       0.00000000       0.00000000       0.00000000       0.00000000       0.00000000       0.00000000
Fe       4.04478788       3.27768898       6.87974262  F        0       0.00000000       0.00000000       0.00000000       0.00000000       0.00000000       0.00000000
Fe       5.25835419       5.34041011       6.87974262  F        0       0.00000000       0.00000000       0.00000000       0.00000000       0.00000000       0.00000000
Fe       7.58492565       1.80027246       8.75854588  F        0       0.00000000       0.00000000       0.00000000       0.00000000       0.00000000       0.00000000
Fe       1.71821624       6.81782675       5.00093937  F        0       0.00000000       0.00000000       0.00000000       0.00000000       0.00000000       0.00000000
Si       3.10001659       6.29763305       6.87974262  F        0       0.00000000       0.00000000       0.00000000       0.00000000       0.00000000       0.00000000
Si       6.20312548       2.32046604       6.87974262  F        0       0.00000000       0.00000000       0.00000000       0.00000000       0.00000000       0.00000000
Si       2.66298747       2.75749540       8.75854588  F        0       0.00000000       0.00000000       0.00000000       0.00000000       0.00000000       0.00000000
Si       6.64015436       5.86060381       5.00093937  F        0       0.00000000       0.00000000       0.00000000       0.00000000       0.00000000       0.00000000
Y       11.77218987       0.84228510      16.28323403  T        1       0.10371500      -0.07298700       0.00330800       0.10371500      -0.07298700       0.00330800
Y        8.20182101       4.35658143      14.38716659  T        1      -0.00798000      -0.01511900       0.06616800      -0.00798000      -0.01511900       0.06616800
Fe       0.08007240       0.16212869      14.39495659  F        0       0.00000000       0.00000000       0.00000000       0.00000000       0.00000000       0.00000000
Fe       9.22306919       1.37569499      14.39495659  F        0       0.00000000       0.00000000       0.00000000       0.00000000       0.00000000       0.00000000
Fe      12.76320744       3.70226669      12.51615334  F        0       0.00000000       0.00000000       0.00000000       0.00000000       0.00000000       0.00000000
Fe      10.70048618       4.91583261      12.51615334  F        0       0.00000000       0.00000000       0.00000000       0.00000000       0.00000000       0.00000000
Fe      11.08164681       3.33760207      14.46486443  T        1       0.03367300      -0.03242200      -0.00890700       0.03367300      -0.03242200      -0.00890700
Fe      12.24869671       5.20985413      14.29196404  T        1      -0.01200700       0.01748400       0.01208100      -0.01200700       0.01748400       0.01208100
Fe       0.58110684       1.64413414      16.17500495  T        1       0.02407400       0.00522800      -0.00117700       0.02407400       0.00522800      -0.00117700
Fe       8.87365673       6.92856324      12.55224746  T        1       0.04252200      -0.01534500      -0.00578100       0.04252200      -0.01534500      -0.00578100
Si      10.27171238       6.31520089      14.33383706  T        1      -0.00689700       0.01186600      -0.00337400      -0.00689700       0.01186600      -0.00337400
Si      13.26421004       2.36430790      14.44674765  T        1       0.01110600       0.00562500      -0.00797400       0.01110600       0.00562500      -0.00797400
Si       9.60960803       2.57464427      16.28311201  T        1       0.14381800      -0.19599500      -0.02127400       0.14381800      -0.19599500      -0.02127400
Si      13.73928643       5.91249385      12.57592117  T        1       0.00666500      -0.04592000       0.00750800       0.00666500      -0.04592000       0.00750800
Y       11.73184681       0.76891184      12.51615334  F        0       0.00000000       0.00000000       0.00000000       0.00000000       0.00000000       0.00000000
Y        8.19170856       4.30904961      10.63734913  F        0       0.00000000       0.00000000       0.00000000       0.00000000       0.00000000       0.00000000
Fe       0.08007240       0.16212869      10.63734913  F        0       0.00000000       0.00000000       0.00000000       0.00000000       0.00000000       0.00000000
Fe       9.22306919       1.37569499      10.63734913  F        0       0.00000000       0.00000000       0.00000000       0.00000000       0.00000000       0.00000000
Fe      12.76320744       3.70226669       8.75854588  F        0       0.00000000       0.00000000       0.00000000       0.00000000       0.00000000       0.00000000
Fe      10.70048618       4.91583261       8.75854683  F        0       0.00000000       0.00000000       0.00000000       0.00000000       0.00000000       0.00000000
Fe      11.12506390       3.27768898      10.63734913  F        0       0.00000000       0.00000000       0.00000000       0.00000000       0.00000000       0.00000000
Fe      12.33862972       5.34041011      10.63735008  F        0       0.00000000       0.00000000       0.00000000       0.00000000       0.00000000       0.00000000
Fe       0.50465012       1.80027246      12.51615334  F        0       0.00000000       0.00000000       0.00000000       0.00000000       0.00000000       0.00000000
Fe       8.79849195       6.81782675       8.75854683  F        0       0.00000000       0.00000000       0.00000000       0.00000000       0.00000000       0.00000000
Si      10.18029213       6.29763305      10.63735008  F        0       0.00000000       0.00000000       0.00000000       0.00000000       0.00000000       0.00000000
Si      13.28340054       2.32046604      10.63734913  F        0       0.00000000       0.00000000       0.00000000       0.00000000       0.00000000       0.00000000
Si       9.74326324       2.75749540      12.51615334  F        0       0.00000000       0.00000000       0.00000000       0.00000000       0.00000000       0.00000000
Si      13.72043037       5.86060381       8.75854683  F        0       0.00000000       0.00000000       0.00000000       0.00000000       0.00000000       0.00000000
Y       11.73184681       0.76891184       8.75854588  F        0       0.00000000       0.00000000       0.00000000       0.00000000       0.00000000       0.00000000
Y        8.19170856       4.30904961       6.87974262  F        0       0.00000000       0.00000000       0.00000000       0.00000000       0.00000000       0.00000000
Fe       0.08007240       0.16212869       6.87974262  F        0       0.00000000       0.00000000       0.00000000       0.00000000       0.00000000       0.00000000
Fe       9.22306919       1.37569499       6.87974262  F        0       0.00000000       0.00000000       0.00000000       0.00000000       0.00000000       0.00000000
Fe      12.76320744       3.70226669       5.00093937  F        0       0.00000000       0.00000000       0.00000000       0.00000000       0.00000000       0.00000000
Fe      10.70048618       4.91583261       5.00093937  F        0       0.00000000       0.00000000       0.00000000       0.00000000       0.00000000       0.00000000