66
Lattice="11.746773719787598 2.313388634042563e-31 1.889025350395755e-15 -1.647103952693099e-15 10.242403030395508 -2.9014366101620106e-15 -0.0 4.101614322027337e-15 33.49222183227539" Properties=species:S:1:pos:R:3:move_mask:L:1:tags:I:1:DFT_forces:R:3:forces:R:3:magmoms:R:1 DFT_energy=-433.99795727 energy=-433.99795727 dipole="_JSON [[0.0, 0.0, 0.0]]" magmom=0.0 free_energy=-434.01223395 pbc="T T T"
Ti       5.88059103       6.83407453      15.51777253  T        1      -0.00157400       0.02131600      -0.02230000      -0.00157400       0.02131600      -0.02230000       0.00000000
Ti       8.80607204       1.69005944      15.50528252  T        1       0.00130800       0.00533800      -0.00874400       0.00130800       0.00533800      -0.00874400       0.00000000
Ti       7.36460416       9.29914611      15.49045663  T        1      -0.00019200      -0.00635700      -0.00404600      -0.00019200      -0.00635700      -0.00404600       0.00000000
Ti      10.22400504       4.24379914      15.51531935  T        1       0.01950400       0.01087200       0.01159200       0.01950400       0.01087200       0.01159200       0.00000000
Ti      10.28520434       9.33005723      15.49163252  T        1      -0.00135900      -0.00853300      -0.00656200      -0.00135900      -0.00853300      -0.00656200       0.00000000
Ti       7.39813951       4.21987225      15.51142586  T        1       0.03365600      -0.01352000      -0.02009600       0.03365600      -0.01352000      -0.02009600       0.00000000
Ti       8.81850266       8.45223045      13.23556328  F        0       0.00000000       0.00000000       0.00000000      -0.02562800       0.14788200       0.21485000       0.00000000
Ti       5.88180918       3.34966660      13.23556328  F        0       0.00000000       0.00000000       0.00000000      -0.00545600       0.07816400       0.64015800       0.00000000
Ti       7.35189629       5.88351327      13.23556328  F        0       0.00000000       0.00000000       0.00000000      -0.22864100       0.03385600       0.44414300       0.00000000
Ti      10.25054789       0.75815058      13.23556328  F        0       0.00000000       0.00000000       0.00000000      -0.02098800      -0.13500200       0.43943700       0.00000000
Ti      10.28510904       5.88351327      13.23556328  F        0       0.00000000       0.00000000       0.00000000       0.25445100      -0.03908800       0.32966500       0.00000000
Ti       7.38645720       0.75815058      13.23556328  F        0       0.00000000       0.00000000       0.00000000       0.03959000      -0.23784800       0.40901600       0.00000000
Ti       8.88807557       6.81053196      15.50714511  T        1       0.00892900      -0.00011800       0.00383400       0.00892900      -0.00011800       0.00383400       0.00000000
Sb       5.88194204       1.59170193      15.88496272  T        1      -0.01085100      -0.00736300      -0.02195200      -0.01085100      -0.00736300      -0.02195200       0.00000000
Sb       5.88180918       8.47482014      13.23556328  F        0       0.00000000       0.00000000       0.00000000      -0.00646300       0.04782600      -0.70590100       0.00000000
Sb       8.81850266       3.32537651      13.23556328  F        0       0.00000000       0.00000000       0.00000000      -0.00170200      -0.02376500      -0.66073900       0.00000000
Ti       5.88180918       6.74078465      10.84326172  F        0       0.00000000       0.00000000       0.00000000       0.00029800      -0.05473300      -0.32398600       0.00000000
Ti       8.81850266       1.61490011      10.84326172  F        0       0.00000000       0.00000000       0.00000000       0.00533700      -0.15383300      -0.37325200       0.00000000
Ti       7.40600014       9.26489210      10.84326172  F        0       0.00000000       0.00000000       0.00000000       0.14281700       0.12045500      -0.34048300       0.00000000
Ti      10.28728437       4.30222607      10.84326172  F        0       0.00000000       0.00000000       0.00000000       0.22797300       0.02080400      -0.39429800       0.00000000
Ti      10.23100471       9.26489210      10.84326172  F        0       0.00000000       0.00000000       0.00000000      -0.13496000       0.12365100      -0.35269800       0.00000000
Ti       7.34972072       4.30222607      10.84326172  F        0       0.00000000       0.00000000       0.00000000      -0.19730700       0.04132900      -0.38938000       0.00000000
Ti       8.81850266       8.45223045       8.45096016  F        0       0.00000000       0.00000000       0.00000000      -0.00088900       0.09210800       0.82154700       0.00000000
Ti       5.88180918       3.34966660       8.45096016  F        0       0.00000000       0.00000000       0.00000000       0.00047400      -0.09032300       0.66139900       0.00000000
Ti       7.35189629       5.88351327       8.45096016  F        0       0.00000000       0.00000000       0.00000000      -0.11177600      -0.03915900       0.88704500       0.00000000
Ti      10.25054789       0.75815058       8.45096016  F        0       0.00000000       0.00000000       0.00000000       0.12954000       0.07759700       0.57706800       0.00000000
Ti      10.28510904       5.88351327       8.45096016  F        0       0.00000000       0.00000000       0.00000000       0.11260900      -0.04775100       0.90300100       0.00000000
Ti       7.38645720       0.75815058       8.45096016  F        0       0.00000000       0.00000000       0.00000000      -0.13802700       0.08335700       0.57604300       0.00000000
Ti       8.81850266       6.76675582      10.84326172  F        0       0.00000000       0.00000000       0.00000000      -0.00336000       0.00526900      -0.84165800       0.00000000
Sb       5.88180918       1.63226223      10.84326172  F        0       0.00000000       0.00000000       0.00000000      -0.00382700      -0.00157200      -0.22600200       0.00000000
Sb       5.88180918       8.47482014       8.45096016  F        0       0.00000000       0.00000000       0.00000000      -0.00720600      -0.11556600      -1.08549100       0.00000000
Sb       8.81850266       3.32537651       8.45096016  F        0       0.00000000       0.00000000       0.00000000      -0.01501100       0.05038900      -1.10390200       0.00000000
Ti       0.00994820       6.82367640      15.52939229  T        1      -0.00524500      -0.01360400       0.00146000      -0.00524500      -0.01360400       0.00146000       0.00000000
Ti       2.95543583       1.69039138      15.50563720  T        1       0.00974400       0.00461900      -0.01163400       0.00974400       0.00461900      -0.01163400       0.00000000
Ti       1.47830098       9.32833828      15.49242111  T        1       0.00200100      -0.00602700      -0.00393200       0.00200100      -0.00602700      -0.00393200       0.00000000
Ti       4.35292631       4.21845987      15.51245669  T        1      -0.00654000      -0.00231800      -0.00590300      -0.00654000      -0.00231800      -0.00590300       0.00000000
Ti       4.39739610       9.30077903      15.48914875  T        1       0.00037800      -0.00385900      -0.00296000       0.00037800      -0.00385900      -0.00296000       0.00000000
Ti       1.52901311       4.24661311      15.51407554  T        1      -0.00320700       0.00195700       0.00773900      -0.00320700       0.00195700       0.00773900       0.00000000
Ti       2.94511557       8.45223045      13.23556328  F        0       0.00000000       0.00000000       0.00000000       0.03196800       0.14534400       0.21657900       0.00000000
Ti       0.00842237       3.34966660      13.23556328  F        0       0.00000000       0.00000000       0.00000000      -0.00479700       0.08143600       0.51814200       0.00000000
Ti       1.47850943       5.88351327      13.23556328  F        0       0.00000000       0.00000000       0.00000000      -0.24204500      -0.04059000       0.31937700       0.00000000
Ti       4.37716055       0.75815058      13.23556328  F        0       0.00000000       0.00000000       0.00000000      -0.04599200      -0.23726500       0.40766200       0.00000000
Ti       4.41172171       5.88351327      13.23556328  F        0       0.00000000       0.00000000       0.00000000       0.23381900       0.03848300       0.44944200       0.00000000
Ti       1.51307058       0.75815058      13.23556328  F        0       0.00000000       0.00000000       0.00000000       0.02178200      -0.13635500       0.44042700       0.00000000
Ti       2.86934554       6.81012590      15.51165183  T        1      -0.00102100       0.00788600      -0.00580700      -0.00102100       0.00788600      -0.00580700       0.00000000
Sb       0.00867033       1.65430414      15.92031144  T        1       0.00077800       0.01480900      -0.01853600       0.00077800       0.01480900      -0.01853600       0.00000000
Sb       0.00842237       8.47482014      13.23556328  F        0       0.00000000       0.00000000       0.00000000      -0.00482400       0.05862800      -0.69597000       0.00000000
Sb       2.94511557       3.32537651      13.23556328  F        0       0.00000000       0.00000000       0.00000000      -0.01703400      -0.02759100      -0.66248200       0.00000000
Ti       0.00842237       6.74078465      10.84326172  F        0       0.00000000       0.00000000       0.00000000       0.00098300      -0.03851700      -0.37291200       0.00000000
Ti       2.94511557       1.61490011      10.84326172  F        0       0.00000000       0.00000000       0.00000000      -0.00425200      -0.15719800      -0.37418800       0.00000000
Ti       1.53261328       9.26489210      10.84326172  F        0       0.00000000       0.00000000       0.00000000       0.14082800       0.12687700      -0.35298800       0.00000000
Ti       4.41389704       4.30222607      10.84326172  F        0       0.00000000       0.00000000       0.00000000       0.19911100       0.04268900      -0.38762000       0.00000000
Ti       4.35761786       9.26489210      10.84326172  F        0       0.00000000       0.00000000       0.00000000      -0.14135100       0.12065100      -0.34257500       0.00000000
Ti       1.47633410       4.30222607      10.84326172  F        0       0.00000000       0.00000000       0.00000000      -0.22740300       0.01928500      -0.39667000       0.00000000
Ti       2.94511557       8.45223045       8.45096016  F        0       0.00000000       0.00000000       0.00000000       0.00529800       0.09351400       0.82176900       0.00000000
Ti       0.00842237       3.34966660       8.45096016  F        0       0.00000000       0.00000000       0.00000000       0.00159400      -0.08543600       0.68125700       0.00000000
Ti       1.47850943       5.88351327       8.45096016  F        0       0.00000000       0.00000000       0.00000000      -0.10912400      -0.04632100       0.90364300       0.00000000
Ti       4.37716055       0.75815058       8.45096016  F        0       0.00000000       0.00000000       0.00000000       0.13433200       0.08408900       0.58068000       0.00000000
Ti       4.41172171       5.88351327       8.45096016  F        0       0.00000000       0.00000000       0.00000000       0.11252900      -0.03898800       0.88559100       0.00000000
Ti       1.51307058       0.75815058       8.45096016  F        0       0.00000000       0.00000000       0.00000000      -0.12660500       0.07594800       0.57543500       0.00000000
Ti       2.94511557       6.76675582      10.84326172  F        0       0.00000000       0.00000000       0.00000000       0.00443900       0.00664200      -0.83997000       0.00000000
Sb       0.00842237       1.63226223      10.84326172  F        0       0.00000000       0.00000000       0.00000000      -0.00114900       0.01011700      -0.21398200       0.00000000
Sb       0.00842237       8.47482014       8.45096016  F        0       0.00000000       0.00000000       0.00000000      -0.00484300      -0.11548200      -1.07387400       0.00000000
Sb       2.94511557       3.32537651       8.45096016  F        0       0.00000000       0.00000000       0.00000000      -0.01176600       0.04916100      -1.10387500       0.00000000
O        5.87670755       5.11723804      16.74419776  T        2      -0.00080900      -0.02355500       0.01803700      -0.00080900      -0.02355500       0.01803700       0.00000000
H        5.88250457       5.09842086      17.72078485  T        2      -0.00284600       0.00528500       0.00133100      -0.00284600       0.00528500       0.00133100       0.00000000
66
Lattice="11.746773719787598 2.313388634042563e-31 1.889025350395755e-15 -1.647103952693099e-15 10.242403030395508 -2.9014366101620106e-15 -0.0 4.101614322027337e-15 33.49222183227539" Properties=species:S:1:pos:R:3:move_mask:L:1:tags:I:1:DFT_forces:R:3:forces:R:3 DFT_energy=-433.74526252 energy=-433.74526252 pbc="T T T"
Ti       5.87476358       6.83315717      15.46975665  T        1       0.07574900       0.02430500      -0.04789600       0.07574900       0.02430500      -0.04789600
Ti       8.78537787       1.70110191      15.50765998  T        1      -0.00503800       0.01181300       0.00182700      -0.00503800       0.01181300       0.00182700
Ti       7.36590504       9.31809500      15.48037775  T        1       0.00934900      -0.00485000       0.00915600       0.00934900      -0.00485000       0.00915600
Ti      10.22622020       4.26747112      15.51969030  T        1      -0.01233400      -0.01653400      -0.00476500      -0.01233400      -0.01653400      -0.00476500
Ti      10.27831654       9.32535530      15.49148614  T        1       0.00656400      -0.00367100       0.00409200       0.00656400      -0.00367100       0.00409200
Ti       7.40000377       4.22680246      15.54798745  T        1       0.04743900      -0.04784000      -0.00172200       0.04743900      -0.04784000      -0.00172200
Ti       8.81850266       8.45223045      13.23556328  F        0       0.00000000       0.00000000       0.00000000       0.00000000       0.00000000       0.00000000
Ti       5.88180918       3.34966660      13.23556328  F        0       0.00000000       0.00000000       0.00000000       0.00000000       0.00000000       0.00000000
Ti       7.35189629       5.88351327      13.23556328  F        0       0.00000000       0.00000000       0.00000000       0.00000000       0.00000000       0.00000000
Ti      10.25054789       0.75815058      13.23556328  F        0       0.00000000       0.00000000       0.00000000       0.00000000       0.00000000       0.00000000
Ti      10.28510904       5.88351327      13.23556328  F        0       0.00000000       0.00000000       0.00000000       0.00000000       0.00000000       0.00000000
Ti       7.38645720       0.75815058      13.23556328  F        0       0.00000000       0.00000000       0.00000000       0.00000000       0.00000000       0.00000000
Ti       8.90055289       6.81382737      15.52256534  T        1      -0.01560300      -0.00434900       0.00324300      -0.01560300      -0.00434900       0.00324300
Sb       5.86861721       1.59019356      15.87095804  T        1       0.00804700       0.00600800       0.01687600       0.00804700       0.00600800       0.01687600
Sb       5.88180918       8.47482014      13.23556328  F        0       0.00000000       0.00000000       0.00000000       0.00000000       0.00000000       0.00000000
Sb       8.81850266       3.32537651      13.23556328  F        0       0.00000000       0.00000000       0.00000000       0.00000000       0.00000000       0.00000000
Ti       5.88180918       6.74078465      10.84326172  F        0       0.00000000       0.00000000       0.00000000       0.00000000       0.00000000       0.00000000
Ti       8.81850266       1.61490011      10.84326172  F        0       0.00000000       0.00000000       0.00000000       0.00000000       0.00000000       0.00000000
Ti       7.40600014       9.26489210      10.84326172  F        0       0.00000000       0.00000000       0.00000000       0.00000000       0.00000000       0.00000000
Ti      10.28728437       4.30222607      10.84326172  F        0       0.00000000       0.00000000       0.00000000       0.00000000       0.00000000       0.00000000
Ti      10.23100471       9.26489210      10.84326172  F        0       0.00000000       0.00000000       0.00000000       0.00000000       0.00000000       0.00000000
Ti       7.34972072       4.30222607      10.84326172  F        0       0.00000000       0.00000000       0.00000000       0.00000000       0.00000000       0.00000000
Ti       8.81850266       8.45223045       8.45096016  F        0       0.00000000       0.00000000       0.00000000       0.00000000       0.00000000       0.00000000
Ti       5.88180918       3.34966660       8.45096016  F        0       0.00000000       0.00000000       0.00000000       0.00000000       0.00000000       0.00000000
Ti       7.35189629       5.88351327       8.45096016  F        0       0.00000000       0.00000000       0.00000000       0.00000000       0.00000000       0.00000000
Ti      10.25054789       0.75815058       8.45096016  F        0       0.00000000       0.00000000       0.00000000       0.00000000       0.00000000       0.00000000
Ti      10.28510904       5.88351327       8.45096016  F        0       0.00000000       0.00000000       0.00000000       0.00000000       0.00000000       0.00000000
Ti       7.38645720       0.75815058       8.45096016  F        0       0.00000000       0.00000000       0.00000000       0.00000000       0.00000000       0.00000000
Ti       8.81850266       6.76675582      10.84326172  F        0       0.00000000       0.00000000       0.00000000       0.00000000       0.00000000       0.00000000
Sb       5.88180918       1.63226223      10.84326172  F        0       0.00000000       0.00000000       0.00000000       0.00000000       0.00000000       0.00000000
Sb       5.88180918       8.47482014       8.45096016  F        0       0.00000000       0.00000000       0.00000000       0.00000000       0.00000000       0.00000000
Sb       8.81850266       3.32537651       8.45096016  F        0       0.00000000       0.00000000       0.00000000       0.00000000       0.00000000       0.00000000
Ti      -0.00285856       6.82340768      15.53306957  T        1       0.00541500      -0.00841800       0.00575700       0.00541500      -0.00841800       0.00575700
Ti       2.93289994       1.68185785      15.50287758  T        1       0.01350400      -0.00562800       0.00387000       0.01350400      -0.00562800       0.00387000
Ti       1.47297548       9.33853779      15.48706456  T        1       0.00541400      -0.00764100       0.01212900       0.00541400      -0.00764100       0.01212900
Ti       4.35196120       4.20962208      15.47044348  T        1       0.00004600      -0.07024900      -0.07017800       0.00004600      -0.07024900      -0.07017800
Ti       4.39059768       9.28222998      15.49830619  T        1       0.02859000      -0.01468100      -0.00073800       0.02859000      -0.01468100      -0.00073800
Ti       1.53133539       4.24343504      15.52128177  T        1       0.03445900       0.00325300       0.00336300       0.03445900       0.00325300       0.00336300
Ti       2.94511557       8.45223045      13.23556328  F        0       0.00000000       0.00000000       0.00000000       0.00000000       0.00000000       0.00000000
Ti       0.00842237       3.34966660      13.23556328  F        0       0.00000000       0.00000000       0.00000000       0.00000000       0.00000000       0.00000000
Ti       1.47850943       5.88351327      13.23556328  F        0       0.00000000       0.00000000       0.00000000       0.00000000       0.00000000       0.00000000
Ti       4.37716055       0.75815058      13.23556328  F        0       0.00000000       0.00000000       0.00000000       0.00000000       0.00000000       0.00000000
Ti       4.41172171       5.88351327      13.23556328  F        0       0.00000000       0.00000000       0.00000000       0.00000000       0.00000000       0.00000000
Ti       1.51307058       0.75815058      13.23556328  F        0       0.00000000       0.00000000       0.00000000       0.00000000       0.00000000       0.00000000
Ti       2.88772229       6.80122773      15.50424922  T        1      -0.08675000       0.04879200      -0.06370100      -0.08675000       0.04879200      -0.06370100
Sb      -0.00898643       1.65898301      15.91183151  T        1       0.01266400       0.00141600      -0.00049000       0.01266400       0.00141600      -0.00049000
Sb       0.00842237       8.47482014      13.23556328  F        0       0.00000000       0.00000000       0.00000000       0.00000000       0.00000000       0.00000000
Sb       2.94511557       3.32537651      13.23556328  F        0       0.00000000       0.00000000       0.00000000       0.00000000       0.00000000       0.00000000
Ti       0.00842237       6.74078465      10.84326172  F        0       0.00000000       0.00000000       0.00000000       0.00000000       0.00000000       0.00000000
Ti       2.94511557       1.61490011      10.84326172  F        0       0.00000000       0.00000000       0.00000000       0.00000000       0.00000000       0.00000000
Ti       1.53261328       9.26489210      10.84326172  F        0       0.00000000       0.00000000       0.00000000       0.00000000       0.00000000       0.00000000
Ti       4.41389704       4.30222607      10.84326172  F        0       0.00000000       0.00000000       0.00000000       0.00000000       0.00000000       0.00000000
Ti       4.35761786       9.26489210      10.84326172  F        0       0.00000000       0.00000000       0.00000000       0.00000000       0.00000000       0.00000000
Ti       1.47633410       4.30222607      10.84326172  F        0       0.00000000       0.00000000       0.00000000       0.00000000       0.00000000       0.00000000
Ti       2.94511557       8.45223045       8.45096016  F        0       0.00000000       0.00000000       0.00000000       0.00000000       0.00000000       0.00000000
Ti       0.00842237       3.34966660       8.45096016  F        0       0.00000000       0.00000000       0.00000000       0.00000000       0.00000000       0.00000000
Ti       1.47850943       5.88351327       8.45096016  F        0       0.00000000       0.00000000       0.00000000       0.00000000       0.00000000       0.00000000
Ti       4.37716055       0.75815058       8.45096016  F        0       0.00000000       0.00000000       0.00000000       0.00000000       0.00000000       0.00000000
Ti       4.41172171       5.88351327       8.45096016  F        0       0.00000000       0.00000000       0.00000000       0.00000000       0.00000000       0.00000000
Ti       1.51307058       0.75815058       8.45096016  F        0       0.00000000       0.00000000       0.00000000       0.00000000       0.00000000       0.00000000
Ti       2.94511557       6.76675582      10.84326172  F        0       0.00000000       0.00000000       0.00000000       0.00000000       0.00000000       0.00000000
Sb       0.00842237       1.63226223      10.84326172  F        0       0.00000000       0.00000000       0.00000000       0.00000000       0.00000000       0.00000000
Sb       0.00842237       8.47482014       8.45096016  F        0       0.00000000       0.00000000       0.00000000       0.00000000       0.00000000       0.00000000
Sb       2.94511557       3.32537651       8.45096016  F        0       0.00000000       0.00000000       0.00000000       0.00000000       0.00000000       0.00000000
O        5.79698237       5.15449385      16.70186777  T        2      -0.13731400       0.07940700      -0.03746600      -0.13731400       0.07940700      -0.03746600
H        5.21091531       5.48223609      17.41952377  T        2       0.26326600      -0.15084800       0.51182700       0.26326600      -0.15084800       0.51182700
66
Lattice="11.746773719787598 2.313388634042563e-31 1.889025350395755e-15 -1.647103952693099e-15 10.242403030395508 -2.9014366101620106e-15 -0.0 4.101614322027337e-15 33.49222183227539" Properties=species:S:1:pos:R:3:move_mask:L:1:tags:I:1:DFT_forces:R:3:forces:R:3 DFT_energy=-433.36830665 energy=-433.36830665 pbc="T T T"
Ti       5.80383088       6.81253472      15.51269706  T        1       0.00147800       0.02029600      -0.00067700       0.00147800       0.02029600      -0.00067700
Ti       8.78853501       1.69176893      15.50731752  T        1      -0.00080900      -0.00592700      -0.00184100      -0.00080900      -0.00592700      -0.00184100
Ti       7.35034510       9.32467957      15.47761988  T        1       0.00080900       0.00060900      -0.00071100       0.00080900       0.00060900      -0.00071100
Ti      10.24369810       4.27972015      15.52134092  T        1       0.00054200       0.00069400      -0.00342100       0.00054200       0.00069400      -0.00342100
Ti      10.27320357       9.33162606      15.48948119  T        1      -0.00506000       0.00301200      -0.00272500      -0.00506000       0.00301200      -0.00272500
Ti       7.35728826       4.27021935      15.55208564  T        1      -0.00748500      -0.00039100       0.00844900      -0.00748500      -0.00039100       0.00844900
Ti       8.81850266       8.45223045      13.23556328  F        0       0.00000000       0.00000000       0.00000000       0.00000000       0.00000000       0.00000000
Ti       5.88180918       3.34966660      13.23556328  F        0       0.00000000       0.00000000       0.00000000       0.00000000       0.00000000       0.00000000
Ti       7.35189629       5.88351327      13.23556328  F        0       0.00000000       0.00000000       0.00000000       0.00000000       0.00000000       0.00000000
Ti      10.25054789       0.75815058      13.23556328  F        0       0.00000000       0.00000000       0.00000000       0.00000000       0.00000000       0.00000000
Ti      10.28510904       5.88351327      13.23556328  F        0       0.00000000       0.00000000       0.00000000       0.00000000       0.00000000       0.00000000
Ti       7.38645720       0.75815058      13.23556328  F        0       0.00000000       0.00000000       0.00000000       0.00000000       0.00000000       0.00000000
Ti       8.91430639       6.81182960      15.52144639  T        1      -0.00196300       0.00233600      -0.00048900      -0.00196300       0.00233600      -0.00048900
Sb       5.86592967       1.59110947      15.85614712  T        1      -0.00042500      -0.00534200      -0.00216800      -0.00042500      -0.00534200      -0.00216800
Sb       5.88180918       8.47482014      13.23556328  F        0       0.00000000       0.00000000       0.00000000       0.00000000       0.00000000       0.00000000
Sb       8.81850266       3.32537651      13.23556328  F        0       0.00000000       0.00000000       0.00000000       0.00000000       0.00000000       0.00000000
Ti       5.88180918       6.74078465      10.84326172  F        0       0.00000000       0.00000000       0.00000000       0.00000000       0.00000000       0.00000000
Ti       8.81850266       1.61490011      10.84326172  F        0       0.00000000       0.00000000       0.00000000       0.00000000       0.00000000       0.00000000
Ti       7.40600014       9.26489210      10.84326172  F        0       0.00000000       0.00000000       0.00000000       0.00000000       0.00000000       0.00000000
Ti      10.28728437       4.30222607      10.84326172  F        0       0.00000000       0.00000000       0.00000000       0.00000000       0.00000000       0.00000000
Ti      10.23100471       9.26489210      10.84326172  F        0       0.00000000       0.00000000       0.00000000       0.00000000       0.00000000       0.00000000
Ti       7.34972072       4.30222607      10.84326172  F        0       0.00000000       0.00000000       0.00000000       0.00000000       0.00000000       0.00000000
Ti       8.81850266       8.45223045       8.45096016  F        0       0.00000000       0.00000000       0.00000000       0.00000000       0.00000000       0.00000000
Ti       5.88180918       3.34966660       8.45096016  F        0       0.00000000       0.00000000       0.00000000       0.00000000       0.00000000       0.00000000
Ti       7.35189629       5.88351327       8.45096016  F        0       0.00000000       0.00000000       0.00000000       0.00000000       0.00000000       0.00000000
Ti      10.25054789       0.75815058       8.45096016  F        0       0.00000000       0.00000000       0.00000000       0.00000000       0.00000000       0.00000000
Ti      10.28510904       5.88351327       8.45096016  F        0       0.00000000       0.00000000       0.00000000       0.00000000       0.00000000       0.00000000
Ti       7.38645720       0.75815058       8.45096016  F        0       0.00000000       0.00000000       0.00000000       0.00000000       0.00000000       0.00000000
Ti       8.81850266       6.76675582      10.84326172  F        0       0.00000000       0.00000000       0.00000000       0.00000000       0.00000000       0.00000000
Sb       5.88180918       1.63226223      10.84326172  F        0       0.00000000       0.00000000       0.00000000       0.00000000       0.00000000       0.00000000
Sb       5.88180918       8.47482014       8.45096016  F        0       0.00000000       0.00000000       0.00000000       0.00000000       0.00000000       0.00000000
Sb       8.81850266       3.32537651       8.45096016  F        0       0.00000000       0.00000000       0.00000000       0.00000000       0.00000000       0.00000000
Ti      11.74001437       6.83140768      15.53143605  T        1      -0.00472600       0.00700700       0.00374700      -0.00472600       0.00700700       0.00374700