50
Lattice="8.248459815979004 -6.185353707995759e-32 -5.050724586183792e-16 -1.479146107219399e-15 9.197968482971191 -5.632131177552696e-16 -0.0 3.902055053720118e-15 31.862695693969727" Properties=species:S:1:pos:R:3:move_mask:L:1:tags:I:1:DFT_forces:R:3:forces:R:3:magmoms:R:1 DFT_energy=-406.2338344 energy=-406.2338344 dipole="_JSON [[0.0, 0.0, 0.0]]" magmom=0.0 free_energy=-406.22785158 pbc="T T T"
Zr       3.63392425       7.66402555      11.73317051  F        0       0.00000000       0.00000000       0.00000000      -0.02507800       0.04394800      -0.13637100       0.00000000
Zr       3.62968573       3.01360292      14.36342975  T        1      -0.01963800      -0.02094000      -0.01209800      -0.01963800      -0.02094000      -0.01209800       0.00000000
Zr       4.61672544       1.53204632      11.73317051  F        0       0.00000000       0.00000000       0.00000000       0.02490200      -0.04657500      -0.13830800       0.00000000
Zr       4.62029924       6.18186565      14.36515783  T        1       0.03057600       0.02118300      -0.01688200       0.03057600       0.02118300      -0.01688200       0.00000000
Zr       7.75815392       1.53204632      11.73317051  F        0       0.00000000       0.00000000       0.00000000       0.00222700      -0.02750100      -0.09989800       0.00000000
Zr       7.77955885       6.16120146      14.36516147  T        1      -0.00110400       0.00364600      -0.00317700      -0.00110400       0.00364600      -0.00317700       0.00000000
Zr       0.49249589       7.66402555      11.73317051  F        0       0.00000000       0.00000000       0.00000000       0.00015200       0.02748200      -0.10212500       0.00000000
Zr       0.47239151       3.03473772      14.36575289  T        1      -0.00595500      -0.00585200      -0.00936300      -0.00595500      -0.00585200      -0.00936300       0.00000000
V        2.06321001       3.03957176      11.73317051  F        0       0.00000000       0.00000000       0.00000000      -0.04160300       0.01602300      -0.01205500       0.00000000
V        2.07631845       7.56268398      14.31965060  T        1       0.02056100       0.00522500       0.00615300       0.02056100       0.00522500       0.00615300       0.00000000
V        2.06321001       0.77828407      13.03872585  F        0       0.00000000       0.00000000       0.00000000      -0.10416300       0.01322200      -0.18854700       0.00000000
V        2.15651380       5.20014102      15.45787000  T        1      -0.01240800       0.01306900      -0.00264700      -0.01240800       0.01306900      -0.00264700       0.00000000
V        2.04267822       0.60396084      15.50372431  T        1      -0.01752500       0.00645400      -0.00443100      -0.01752500       0.00645400      -0.00443100       0.00000000
V        2.06321001       5.37726834      13.08284092  F        0       0.00000000       0.00000000       0.00000000      -0.00177300      -0.22191500       0.71391600       0.00000000
V        6.18743992       6.15650046      11.73317051  F        0       0.00000000       0.00000000       0.00000000       0.04143900      -0.01661400      -0.01343900       0.00000000
V        6.17508108       1.63370855      14.32047639  T        1      -0.02472600      -0.02826900       0.01056300      -0.02472600      -0.02826900       0.01056300       0.00000000
V        6.21103084       8.58903385      15.50554852  T        1       0.01201900       0.00326500      -0.01961400       0.01201900       0.00326500      -0.01961400       0.00000000
V        6.18743992       3.81880331      13.08284092  F        0       0.00000000       0.00000000       0.00000000       0.00543800       0.22338900       0.71245500       0.00000000
V        6.18743992       8.41778827      13.03872585  F        0       0.00000000       0.00000000       0.00000000       0.10075700      -0.01530400      -0.17247100       0.00000000
V        6.09488616       3.99560341      15.45910209  T        1      -0.00663500      -0.00702200      -0.00802600      -0.00663500      -0.00702200      -0.00802600       0.00000000
Ru       4.12523180      -0.00257258      14.34315405  T        1       0.01666500       0.00767200       0.02632800       0.01666500       0.00767200       0.02632800       0.00000000
Ru       4.12532473       4.59803629      11.73317051  F        0       0.00000000       0.00000000       0.00000000       0.00037500       0.00086900      -0.31195600       0.00000000
Ru       0.00171588      -0.00270906      14.34253841  T        1      -0.00989600       0.00552400       0.00710400      -0.00989600       0.00552400       0.00710400       0.00000000
Ru       0.00109527       4.59803629      11.73317051  F        0       0.00000000       0.00000000       0.00000000       0.00066900       0.00014700      -0.37333600       0.00000000
Zr       3.63392425       7.66402555       6.42272091  F        0       0.00000000       0.00000000       0.00000000      -0.07239000      -0.36589100       0.56921300       0.00000000
Zr       3.63392425       3.06504107       9.07794571  F        0       0.00000000       0.00000000       0.00000000      -0.16630300      -0.07863900      -0.47719100       0.00000000
Zr       4.61672544       1.53204632       6.42272091  F        0       0.00000000       0.00000000       0.00000000       0.07420000       0.36496000       0.56946200       0.00000000
Zr       4.61672544       6.13103092       9.07794571  F        0       0.00000000       0.00000000       0.00000000       0.16745100       0.07857400      -0.47830000       0.00000000
Zr       7.75815392       1.53204632       6.42272091  F        0       0.00000000       0.00000000       0.00000000      -0.07538200       0.35717000       0.56828100       0.00000000
Zr       7.75815392       6.13103092       9.07794571  F        0       0.00000000       0.00000000       0.00000000      -0.18112400       0.08592900      -0.49212700       0.00000000
Zr       0.49249589       7.66402555       6.42272091  F        0       0.00000000       0.00000000       0.00000000       0.07403000      -0.35806200       0.56805300       0.00000000
Zr       0.49249589       3.06504107       9.07794571  F        0       0.00000000       0.00000000       0.00000000       0.17992600      -0.08604000      -0.49164700       0.00000000
V        2.06321001       3.03957176       6.42272091  F        0       0.00000000       0.00000000       0.00000000      -0.00273400       0.46452200       0.39584000       0.00000000
V        2.06321001       7.63855600       9.07794571  F        0       0.00000000       0.00000000       0.00000000       0.00575700      -0.21131600      -0.39245200       0.00000000
V        2.06321001       0.77828407       7.72827625  F        0       0.00000000       0.00000000       0.00000000      -0.00468400       0.09473800      -0.36186100       0.00000000
V        2.06321001       5.37726834      10.38350105  F        0       0.00000000       0.00000000       0.00000000      -0.01310900      -0.04702100       0.07636100       0.00000000
V        2.06321001       0.77828407      10.42761517  F        0       0.00000000       0.00000000       0.00000000      -0.00869900       0.05582900      -0.15077400       0.00000000
V        2.06321001       5.37726834       7.77239037  F        0       0.00000000       0.00000000       0.00000000      -0.01201100      -0.10811300      -0.66511000       0.00000000
V        6.18743992       6.15650046       6.42272091  F        0       0.00000000       0.00000000       0.00000000       0.00266800      -0.46397500       0.39636200       0.00000000
V        6.18743992       1.55751610       9.07794571  F        0       0.00000000       0.00000000       0.00000000      -0.00560000       0.21110500      -0.39203600       0.00000000
V        6.18743992       8.41778827      10.42761517  F        0       0.00000000       0.00000000       0.00000000       0.00904100      -0.05577600      -0.15320100       0.00000000
V        6.18743992       3.81880331       7.77239037  F        0       0.00000000       0.00000000       0.00000000       0.01190400       0.10892100      -0.66495300       0.00000000
V        6.18743992       8.41778827       7.72827625  F        0       0.00000000       0.00000000       0.00000000       0.00457300      -0.09550800      -0.36248300       0.00000000
V        6.18743992       3.81880331      10.38350105  F        0       0.00000000       0.00000000       0.00000000       0.01247400       0.04605000       0.07477300       0.00000000
Ru       4.12532473       9.19702053       9.07794571  F        0       0.00000000       0.00000000       0.00000000       0.00099300      -0.00030000      -0.24944500       0.00000000
Ru       4.12532473       4.59803629       6.42272091  F        0       0.00000000       0.00000000       0.00000000       0.00109100       0.00115700       1.25863100       0.00000000
Ru       0.00109527       9.19702053       9.07794571  F        0       0.00000000       0.00000000       0.00000000      -0.00016000      -0.00041800      -0.21450100       0.00000000
Ru       0.00109527       4.59803629       6.42272091  F        0       0.00000000       0.00000000       0.00000000      -0.00058600       0.00109200       1.24867400       0.00000000
N        4.12366808       4.59754324      15.92069856  T        2       0.00902800      -0.00185500      -0.03903400       0.00902800      -0.00185500      -0.03903400       0.00000000
H        4.11960160       4.59326773      16.95981811  T        2       0.00437100       0.00174100       0.00768800       0.00437100       0.00174100       0.00768800       0.00000000
50
Lattice="8.248459815979004 -6.185353707995759e-32 -5.050724586183792e-16 -1.479146107219399e-15 9.197968482971191 -5.632131177552696e-16 -0.0 3.902055053720118e-15 31.862695693969727" Properties=species:S:1:pos:R:3:move_mask:L:1:tags:I:1:DFT_forces:R:3:forces:R:3 DFT_energy=-406.1773363 energy=-406.1773363 pbc="T T T"
Zr       3.63392425       7.66402555      11.73317051  F        0       0.00000000       0.00000000       0.00000000       0.00000000       0.00000000       0.00000000
Zr       3.61320323       2.99749220      14.32323212  T        1      -0.00085500      -0.00330300       0.01464300      -0.00085500      -0.00330300       0.01464300
Zr       4.61672544       1.53204632      11.73317051  F        0       0.00000000       0.00000000       0.00000000       0.00000000       0.00000000       0.00000000
Zr       4.61901477       6.17063136      14.37696394  T        1      -0.00124300       0.00151700       0.00296500      -0.00124300       0.00151700       0.00296500
Zr       7.75815392       1.53204632      11.73317051  F        0       0.00000000       0.00000000       0.00000000       0.00000000       0.00000000       0.00000000
Zr       7.77399241       6.16329114      14.36012263  T        1      -0.00113300      -0.00451700       0.00075400      -0.00113300      -0.00451700       0.00075400
Zr       0.49249589       7.66402555      11.73317051  F        0       0.00000000       0.00000000       0.00000000       0.00000000       0.00000000       0.00000000
Zr       0.46401156       3.03597100      14.36601858  T        1      -0.00334200      -0.00617700      -0.00387800      -0.00334200      -0.00617700      -0.00387800
V        2.06321001       3.03957176      11.73317051  F        0       0.00000000       0.00000000       0.00000000       0.00000000       0.00000000       0.00000000
V        2.08160550       7.57049508      14.31600238  T        1      -0.00007600      -0.00460900       0.00210400      -0.00007600      -0.00460900       0.00210400
V        2.06321001       0.77828407      13.03872585  F        0       0.00000000       0.00000000       0.00000000       0.00000000       0.00000000       0.00000000
V        2.14185604       5.21330322      15.44219707  T        1      -0.00769900      -0.02387900       0.00647400      -0.00769900      -0.02387900       0.00647400
V        2.03596178       0.60653511      15.50302136  T        1      -0.00265000       0.00035600      -0.00156400      -0.00265000       0.00035600      -0.00156400
V        2.06321001       5.37726834      13.08284092  F        0       0.00000000       0.00000000       0.00000000       0.00000000       0.00000000       0.00000000
V        6.18743992       6.15650046      11.73317051  F        0       0.00000000       0.00000000       0.00000000       0.00000000       0.00000000       0.00000000
V        6.16649131       1.63059617      14.32461142  T        1      -0.00121000      -0.00649000       0.00040100      -0.00121000      -0.00649000       0.00040100
V        6.21576689       8.58698144      15.51030089  T        1       0.00180800      -0.00995300       0.00115600       0.00180800      -0.00995300       0.00115600
V        6.18743992       3.81880331      13.08284092  F        0       0.00000000       0.00000000       0.00000000       0.00000000       0.00000000       0.00000000
V        6.18743992       8.41778827      13.03872585  F        0       0.00000000       0.00000000       0.00000000       0.00000000       0.00000000       0.00000000
V        6.06850375       3.98925703      15.45786161  T        1       0.01531900      -0.00343200      -0.00903900       0.01531900      -0.00343200      -0.00903900
Ru       4.12842420       9.19131387      14.34766190  T        1      -0.00065200      -0.00074400       0.00254400      -0.00065200      -0.00074400       0.00254400
Ru       4.12532473       4.59803629      11.73317051  F        0       0.00000000       0.00000000       0.00000000       0.00000000       0.00000000       0.00000000
Ru      -0.00180463       9.19496575      14.34448453  T        1       0.00036400      -0.00341800       0.00108800       0.00036400      -0.00341800       0.00108800
Ru       0.00109527       4.59803629      11.73317051  F        0       0.00000000       0.00000000       0.00000000       0.00000000       0.00000000       0.00000000
Zr       3.63392425       7.66402555       6.42272091  F        0       0.00000000       0.00000000       0.00000000       0.00000000       0.00000000       0.00000000
Zr       3.63392425       3.06504107       9.07794571  F        0       0.00000000       0.00000000       0.00000000       0.00000000       0.00000000       0.00000000
Zr       4.61672544       1.53204632       6.42272091  F        0       0.00000000       0.00000000       0.00000000       0.00000000       0.00000000       0.00000000
Zr       4.61672544       6.13103092       9.07794571  F        0       0.00000000       0.00000000       0.00000000       0.00000000       0.00000000       0.00000000
Zr       7.75815392       1.53204632       6.42272091  F        0       0.00000000       0.00000000       0.00000000       0.00000000       0.00000000       0.00000000
Zr       7.75815392       6.13103092       9.07794571  F        0       0.00000000       0.00000000       0.00000000       0.00000000       0.00000000       0.00000000
Zr       0.49249589       7.66402555       6.42272091  F        0       0.00000000       0.00000000       0.00000000       0.00000000       0.00000000       0.00000000
Zr       0.49249589       3.06504107       9.07794571  F        0       0.00000000       0.00000000       0.00000000       0.00000000       0.00000000       0.00000000
V        2.06321001       3.03957176       6.42272091  F        0       0.00000000       0.00000000       0.00000000       0.00000000       0.00000000       0.00000000
V        2.06321001       7.63855600       9.07794571  F        0       0.00000000       0.00000000       0.00000000       0.00000000       0.00000000       0.00000000
V        2.06321001       0.77828407       7.72827625  F        0       0.00000000       0.00000000       0.00000000       0.00000000       0.00000000       0.00000000
V        2.06321001       5.37726834      10.38350105  F        0       0.00000000       0.00000000       0.00000000       0.00000000       0.00000000       0.00000000
V        2.06321001       0.77828407      10.42761517  F        0       0.00000000       0.00000000       0.00000000       0.00000000       0.00000000       0.00000000
V        2.06321001       5.37726834       7.77239037  F        0       0.00000000       0.00000000       0.00000000       0.00000000       0.00000000       0.00000000
V        6.18743992       6.15650046       6.42272091  F        0       0.00000000       0.00000000       0.00000000       0.00000000       0.00000000       0.00000000
V        6.18743992       1.55751610       9.07794571  F        0       0.00000000       0.00000000       0.00000000       0.00000000       0.00000000       0.00000000
V        6.18743992       8.41778827      10.42761517  F        0       0.00000000       0.00000000       0.00000000       0.00000000       0.00000000       0.00000000
V        6.18743992       3.81880331       7.77239037  F        0       0.00000000       0.00000000       0.00000000       0.00000000       0.00000000       0.00000000
V        6.18743992       8.41778827       7.72827625  F        0       0.00000000       0.00000000       0.00000000       0.00000000       0.00000000       0.00000000
V        6.18743992       3.81880331      10.38350105  F        0       0.00000000       0.00000000       0.00000000       0.00000000       0.00000000       0.00000000
Ru       4.12532473       9.19702053       9.07794571  F        0       0.00000000       0.00000000       0.00000000       0.00000000       0.00000000       0.00000000
Ru       4.12532473       4.59803629       6.42272091  F        0       0.00000000       0.00000000       0.00000000       0.00000000       0.00000000       0.00000000
Ru       0.00109527       9.19702053       9.07794571  F        0       0.00000000       0.00000000       0.00000000       0.00000000       0.00000000       0.00000000
Ru       0.00109527       4.59803629       6.42272091  F        0       0.00000000       0.00000000       0.00000000       0.00000000       0.00000000       0.00000000
N        4.08559536       4.56918911      15.89180088  T        2       0.00157200       0.00089800      -0.00503200       0.00157200       0.00089800      -0.00503200
H        3.88011637       4.26803112      16.86509254  T        2       0.17449900       0.15074300       0.15269600       0.17449900       0.15074300       0.15269600
50
Lattice="8.248459815979004 -6.185353707995759e-32 -5.050724586183792e-16 -1.479146107219399e-15 9.197968482971191 -5.632131177552696e-16 -0.0 3.902055053720118e-15 31.862695693969727" Properties=species:S:1:pos:R:3:move_mask:L:1:tags:I:1:DFT_forces:R:3:forces:R:3 DFT_energy=-406.02442023 energy=-406.02442023 pbc="T T T"
Zr       3.63392425       7.66402555      11.73317051  F        0       0.00000000       0.00000000       0.00000000       0.00000000       0.00000000       0.00000000
Zr       3.61022095       2.99818585      14.29837170  T        1      -0.00587200      -0.01342400       0.00390100      -0.00587200      -0.01342400       0.00390100
Zr       4.61672544       1.53204632      11.73317051  F        0       0.00000000       0.00000000       0.00000000       0.00000000       0.00000000       0.00000000
Zr       4.61762200       6.16360516      14.37750172  T        1      -0.00577900       0.01122600       0.00755100      -0.00577900       0.01122600       0.00755100
Zr       7.75815392       1.53204632      11.73317051  F        0       0.00000000       0.00000000       0.00000000       0.00000000       0.00000000       0.00000000
Zr       7.77258250       6.16757640      14.36057223  T        1      -0.00838000      -0.00780100      -0.00847800      -0.00838000      -0.00780100      -0.00847800
Zr       0.49249589       7.66402555      11.73317051  F        0       0.00000000       0.00000000       0.00000000       0.00000000       0.00000000       0.00000000
Zr       0.46865768       3.04366726      14.37194144  T        1      -0.01680500      -0.00977500      -0.01079200      -0.01680500      -0.00977500      -0.01079200
V        2.06321001       3.03957176      11.73317051  F        0       0.00000000       0.00000000       0.00000000       0.00000000       0.00000000       0.00000000
V        2.08254288       7.57698148      14.31337789  T        1      -0.00648500      -0.00633500      -0.00109800      -0.00648500      -0.00633500      -0.00109800
V        2.06321001       0.77828407      13.03872585  F        0       0.00000000       0.00000000       0.00000000       0.00000000       0.00000000       0.00000000
V        2.14510738       5.24120872      15.43509438  T        1      -0.03373100      -0.04163100      -0.02075100      -0.03373100      -0.04163100      -0.02075100
V        2.04349324       0.61054144      15.50455156  T        1      -0.00157900       0.00227500      -0.00802300      -0.00157900       0.00227500      -0.00802300
V        2.06321001       5.37726834      13.08284092  F        0       0.00000000       0.00000000       0.00000000       0.00000000       0.00000000       0.00000000
V        6.18743992       6.15650046      11.73317051  F        0       0.00000000       0.00000000       0.00000000       0.00000000       0.00000000       0.00000000
V        6.16846822       1.63834351      14.32821829  T        1      -0.00338700      -0.00945700       0.00124700      -0.00338700      -0.00945700       0.00124700
V        6.21611522       8.60144999      15.51039605  T        1       0.00379000      -0.02036400       0.00064700       0.00379000      -0.02036400       0.00064700
V        6.18743992       3.81880331      13.08284092  F        0       0.00000000       0.00000000       0.00000000       0.00000000       0.00000000       0.00000000
V        6.18743992       8.41778827      13.03872585  F        0       0.00000000       0.00000000       0.00000000       0.00000000       0.00000000       0.00000000
V        6.04535943       3.99311939      15.47182041  T        1       0.04149200      -0.00750900      -0.03831300       0.04149200      -0.00750900      -0.03831300
Ru       4.13046749       9.19307803      14.34563562  T        1      -0.00058700      -0.00209200       0.00852400      -0.00058700      -0.00209200       0.00852400
Ru       4.12532473       4.59803629      11.73317051  F        0       0.00000000       0.00000000       0.00000000       0.00000000       0.00000000       0.00000000
Ru      -0.00017917       9.20106502      14.34509813  T        1      -0.00427900      -0.01006800       0.00540500      -0.00427900      -0.01006800       0.00540500
Ru       0.00109527       4.59803629      11.73317051  F        0       0.00000000       0.00000000       0.00000000       0.00000000       0.00000000       0.00000000
Zr       3.63392425       7.66402555       6.42272091  F        0       0.00000000       0.00000000       0.00000000       0.00000000       0.00000000       0.00000000
Zr       3.63392425       3.06504107       9.07794571  F        0       0.00000000       0.00000000       0.00000000       0.00000000       0.00000000       0.00000000
Zr       4.61672544       1.53204632       6.42272091  F        0       0.00000000       0.00000000       0.00000000       0.00000000       0.00000000       0.00000000
Zr       4.61672544       6.13103092       9.07794571  F        0       0.00000000       0.00000000       0.00000000       0.00000000       0.00000000       0.00000000
Zr       7.75815392       1.53204632       6.42272091  F        0       0.00000000       0.00000000       0.00000000       0.00000000       0.00000000       0.00000000
Zr       7.75815392       6.13103092       9.07794571  F        0       0.00000000       0.00000000       0.00000000       0.00000000       0.00000000       0.00000000
Zr       0.49249589       7.66402555       6.42272091  F        0       0.00000000       0.00000000       0.00000000       0.00000000       0.00000000       0.00000000
Zr       0.49249589       3.06504107       9.07794571  F        0       0.00000000       0.00000000       0.00000000       0.00000000       0.00000000       0.00000000
V        2.06321001       3.03957176       6.42272091  F        0       0.00000000       0.00000000       0.00000000       0.00000000       0.00000000       0.00000000
V        2.06321001       7.63855600       9.07794571  F        0       0.00000000       0.00000000       0.00000000       0.00000000       0.00000000       0.00000000
V        2.06321001       0.77828407       7.72827625  F        0       0.00000000       0.00000000       0.00000000       0.00000000       0.00000000       0.00000000
V        2.06321001       5.37726834      10.38350105  F        0       0.00000000       0.00000000       0.00000000       0.00000000       0.00000000       0.00000000
V        2.06321001       0.77828407      10.42761517  F        0       0.00000000       0.00000000       0.00000000       0.00000000       0.00000000       0.00000000
V        2.06321001       5.37726834       7.77239037  F        0       0.00000000       0.00000000       0.00000000       0.00000000       0.00000000       0.00000000
V        6.18743992       6.15650046       6.42272091  F        0       0.00000000       0.00000000       0.00000000       0.00000000       0.00000000       0.00000000
V        6.18743992       1.55751610       9.07794571  F        0       0.00000000       0.00000000       0.00000000       0.00000000       0.00000000       0.00000000
V        6.18743992       8.41778827      10.42761517  F        0       0.00000000       0.00000000       0.00000000       0.00000000       0.00000000       0.00000000
V        6.18743992       3.81880331       7.77239037  F        0       0.00000000       0.00000000       0.00000000       0.00000000       0.00000000       0.00000000
V        6.18743992       8.41778827       7.72827625  F        0       0.00000000       0.00000000       0.00000000       0.00000000       0.00000000       0.00000000
V        6.18743992       3.81880331      10.38350105  F        0       0.00000000       0.00000000       0.00000000       0.00000000       0.00000000       0.00000000
Ru       4.12532473       9.19702053       9.07794571  F        0       0.00000000       0.00000000       0.00000000       0.00000000       0.00000000       0.00000000
Ru       4.12532473       4.59803629       6.42272091  F        0       0.00000000       0.00000000       0.00000000       0.00000000       0.00000000       0.00000000
Ru       0.00109527       9.19702053       9.07794571  F        0       0.00000000       0.00000000       0.00000000       0.00000000       0.00000000       0.00000000
Ru       0.00109527       4.59803629       6.42272091  F        0       0.00000000       0.00000000       0.00000000       0.00000000       0.00000000       0.00000000
N        4.08328286       4.56843787      15.88339906  T        2      -0.02173900       0.00390400      -0.00898300      -0.02173900       0.00390400      -0.00898300
H        3.63655069       4.01979366      16.65637888  T        2       0.29017700       0.13974600       0.32613200       0.29017700       0.13974600       0.32613200
50
Lattice="8.248459815979004 -6.185353707995759e-32 -5.050724586183792e-16 -1.479146107219399e-15 9.197968482971191 -5.632131177552696e-16 -0.0 3.902055053720118e-15 31.862695693969727" Properties=species:S:1:pos:R:3:move_mask:L:1:tags:I:1:DFT_forces:R:3:forces:R:3 DFT_energy=-405.80809087 energy=-405.80809087 pbc="T T T"
Zr       3.63392425       7.66402555      11.73317051  F        0       0.00000000       0.00000000       0.00000000       0.00000000       0.00000000       0.00000000
Zr       3.61117373       3.00060846      14.28693941  T        1      -0.01146100      -0.01012800      -0.04091800      -0.01146100      -0.01012800      -0.04091800
Zr       4.61672544       1.53204632      11.73317051  F        0       0.00000000       0.00000000       0.00000000       0.00000000       0.00000000       0.00000000
Zr       4.62133081       6.15695176      14.36827328  T        1      -0.03084700      -0.01702200       0.03509700      -0.03084700      -0.01702200       0.03509700
Zr       7.75815392       1.53204632      11.73317051  F        0       0.00000000       0.00000000       0.00000000       0.00000000       0.00000000       0.00000000
Zr       7.77720278       6.17011100      14.36773265  T        1      -0.02276100      -0.00783300      -0.01797500      -0.02276100      -0.00783300      -0.01797500
Zr       0.49249589       7.66402555      11.73317051  F        0       0.00000000       0.00000000       0.00000000       0.00000000       0.00000000       0.00000000
Zr       0.47925861       3.04906648      14.38052846  T        1      -0.02245200      -0.00054800      -0.01308700      -0.02245200      -0.00054800      -0.01308700
V        2.06321001       3.03957176      11.73317051  F        0       0.00000000       0.00000000       0.00000000       0.00000000       0.00000000       0.00000000
V        2.08689229       7.57835060      14.31527645  T        1      -0.01878800      -0.00182400      -0.00418400      -0.01878800      -0.00182400      -0.00418400
V        2.06321001       0.77828407      13.03872585  F        0       0.00000000       0.00000000       0.00000000       0.00000000       0.00000000       0.00000000
V        2.16311675       5.27515792      15.44776528  T        1      -0.10249100      -0.00350100      -0.08911500      -0.10249100      -0.00350100      -0.08911500
V        2.04665127       0.61154023      15.50579840  T        1       0.00244300       0.01836900      -0.00726900       0.00244300       0.01836900      -0.00726900
V        2.06321001       5.37726834      13.08284092  F        0       0.00000000       0.00000000       0.00000000       0.00000000       0.00000000       0.00000000
V        6.18743992       6.15650046      11.73317051  F        0       0.00000000       0.00000000       0.00000000       0.00000000       0.00000000       0.00000000