40
Lattice="10.29448127746582 0.0 5.943521499633789 -8.005462438617674e-16 13.073912620544434 7.9246954917907715 0.0 0.0 39.623477935791016" Properties=species:S:1:pos:R:3:move_mask:L:1:tags:I:1:DFT_forces:R:3:forces:R:3:magmoms:R:1 DFT_energy=-76.10438643 energy=-76.10438643 dipole="_JSON [[0.0, 0.0, 0.0]]" magmom=0.0 free_energy=-76.10138354 pbc="T T T"
Ca       3.88018334       1.35046005      17.06864524  F        0       0.00000000       0.00000000       0.00000000       0.00377500       0.04543700      -0.00191500       0.00000000
Ca       5.02401459      11.15589428      23.01216674  F        0       0.00000000       0.00000000       0.00000000      -0.03132900      -0.03633700       0.10344600       0.00000000
Ca       3.88018334       7.88741636      21.03099418  F        0       0.00000000       0.00000000       0.00000000       0.08505200      -0.04729900      -0.07052300       0.00000000
Ca       6.16784585       4.61893821      17.06864524  F        0       0.00000000       0.00000000       0.00000000      -0.06268100      -0.00052800       0.11940100       0.00000000
Ca       3.88018334       1.35046005      21.03099418  F        0       0.00000000       0.00000000       0.00000000      -0.00133500      -0.02123600      -0.02729300       0.00000000
Ca       5.02401459      11.15589428      26.97451568  F        0       0.00000000       0.00000000       0.00000000       0.02423000       0.14140200      -0.06732400       0.00000000
Ca       4.06292473       7.86934095      24.96290231  T        1      -0.00354200       0.00197900       0.03100400      -0.00354200       0.00197900       0.03100400       0.00000000
Ca       6.16784585       4.61893821      21.03099418  F        0       0.00000000       0.00000000       0.00000000       0.00929100      -0.07286600       0.03627000       0.00000000
Ca       3.97817498       1.28332647      24.85770007  T        1      -0.00301600       0.00078000      -0.00318800      -0.00301600       0.00078000      -0.00318800       0.00000000
Ca       5.06465806      11.10654623      30.84861716  T        1      -0.00087300       0.01370000       0.00722000      -0.00087300       0.01370000       0.00722000       0.00000000
Ca       4.05903410       7.79999242      28.63190737  T        1      -0.01915000      -0.00089500       0.00020500      -0.01915000      -0.00089500       0.00020500       0.00000000
Ca       6.09310630       4.73206139      25.16059630  T        1       0.00626700      -0.01872600      -0.01488800       0.00626700      -0.01872600      -0.01488800       0.00000000
Ca       7.31167710       1.35046005      19.04981971  F        0       0.00000000       0.00000000       0.00000000      -0.00412300       0.05566500       0.00924200       0.00000000
Ca       8.45550835      11.15589428      24.99334121  F        0       0.00000000       0.00000000       0.00000000      -0.07005800      -0.02049100       0.06470600       0.00000000
Ca       7.31167710       7.88741636      23.01216674  F        0       0.00000000       0.00000000       0.00000000       0.15553500       0.00674000      -0.24231600       0.00000000
Ca       9.59933960       4.61893821      19.04981971  F        0       0.00000000       0.00000000       0.00000000      -0.06817000       0.00275200       0.11870900       0.00000000
Ca       7.31167710       1.35046005      23.01216674  F        0       0.00000000       0.00000000       0.00000000      -0.01132600       0.01150200       0.00968700       0.00000000
Ca       8.45550835      11.15589428      28.95568824  F        0       0.00000000       0.00000000       0.00000000       0.03325100       0.00456200      -0.04981000       0.00000000
Ca       7.29325377       7.92086147      26.81373232  T        1       0.02645200       0.00610600       0.00113600       0.02645200       0.00610600       0.00113600       0.00000000
Ca       9.59933960       4.61893821      23.01216674  F        0       0.00000000       0.00000000       0.00000000      -0.03227000      -0.07355900       0.02744000       0.00000000
Ca       7.41374334       1.32307443      26.85188634  T        1      -0.01021600       0.01229000      -0.00923000      -0.01021600       0.01229000      -0.00923000       0.00000000
Ca       8.48116134      11.14101463      32.84941617  T        1      -0.00604600       0.01727000       0.00161500      -0.00604600       0.01727000       0.00161500       0.00000000
Ca       7.48654293       7.88411419      30.69226770  T        1       0.00424100       0.01733500      -0.00432200       0.00424100       0.01733500      -0.00432200       0.00000000
Ca       9.65776268       4.63833310      26.99952248  T        1      -0.01126200       0.00804100      -0.00913700      -0.01126200       0.00804100      -0.00913700       0.00000000
Ca       0.44868958       1.35046005      15.08747268  F        0       0.00000000       0.00000000       0.00000000      -0.00769100       0.05555900       0.00933600       0.00000000
Ca       1.59252083      11.15589428      21.03099418  F        0       0.00000000       0.00000000       0.00000000      -0.03163300       0.03976600       0.05806100       0.00000000
Ca       0.44868958       7.88741636      19.04981971  F        0       0.00000000       0.00000000       0.00000000       0.01928800      -0.04453800      -0.10965800       0.00000000
Ca       2.73635209       4.61893821      15.08747268  F        0       0.00000000       0.00000000       0.00000000      -0.07233700       0.00283100       0.11054500       0.00000000
Ca       0.44868958       1.35046005      19.04981971  F        0       0.00000000       0.00000000       0.00000000       0.03939100      -0.02419900      -0.00074500       0.00000000
Ca       1.59252083      11.15589428      24.99334121  F        0       0.00000000       0.00000000       0.00000000       0.04329800       0.01383500      -0.05072100       0.00000000
Ca       0.54451979       7.97305958      22.85527946  T        1      -0.00355500      -0.00495300       0.00680800      -0.00355500      -0.00495300       0.00680800       0.00000000
Ca       2.73635209       4.61893821      19.04981971  F        0       0.00000000       0.00000000       0.00000000       0.02918900      -0.08694900      -0.02811900       0.00000000
Ca       0.53987717       1.32779568      22.89749647  T        1      -0.00795600      -0.00184000       0.00707400      -0.00795600      -0.00184000       0.00707400       0.00000000
Ca       1.62501035      11.12933650      28.88511021  T        1       0.00277400       0.00737100       0.00600700       0.00277400       0.00737100       0.00600700       0.00000000
Ca       0.56304786       7.91204789      26.70127285  T        1      -0.00206200       0.00296200       0.00443900      -0.00206200       0.00296200       0.00443900       0.00000000
Ca       2.73986110       4.62742296      22.99892522  T        1      -0.00822200       0.00183100      -0.00712500      -0.00822200       0.00183100      -0.00712500       0.00000000
C        5.14681821       6.53683702      26.74582122  T        2      -0.02458400      -0.00861700      -0.00179700      -0.02458400      -0.00861700      -0.00179700       0.00000000
C        5.39706000       5.62650899      27.72536094  T        2       0.04193000       0.01094300       0.00020600       0.04193000       0.01094300       0.00020600       0.00000000
H        5.17411852       5.71911325      28.84197735  T        2      -0.01270400      -0.00010600      -0.00015600      -0.01270400      -0.00010600      -0.00015600       0.00000000
H        5.87686062       4.60195238      27.63410532  T        2      -0.01782200      -0.01751800      -0.03429000      -0.01782200      -0.01751800      -0.03429000       0.00000000
40
Lattice="10.29448127746582 0.0 5.943521499633789 -8.005462438617674e-16 13.073912620544434 7.9246954917907715 0.0 0.0 39.623477935791016" Properties=species:S:1:pos:R:3:move_mask:L:1:tags:I:1:DFT_forces:R:3:forces:R:3 DFT_energy=-76.08568688 energy=-76.08568688 pbc="T T T"
Ca       3.88018334       1.35046005      17.06864524  F        0       0.00000000       0.00000000       0.00000000       0.00000000       0.00000000       0.00000000
Ca       5.02401459      11.15589428      23.01216674  F        0       0.00000000       0.00000000       0.00000000       0.00000000       0.00000000       0.00000000
Ca       3.88018334       7.88741636      21.03099418  F        0       0.00000000       0.00000000       0.00000000       0.00000000       0.00000000       0.00000000
Ca       6.16784585       4.61893821      17.06864524  F        0       0.00000000       0.00000000       0.00000000       0.00000000       0.00000000       0.00000000
Ca       3.88018334       1.35046005      21.03099418  F        0       0.00000000       0.00000000       0.00000000       0.00000000       0.00000000       0.00000000
Ca       5.02401459      11.15589428      26.97451568  F        0       0.00000000       0.00000000       0.00000000       0.00000000       0.00000000       0.00000000
Ca       4.05368150       7.88512387      24.95178105  T        1       0.00075500      -0.00069000      -0.00056900       0.00075500      -0.00069000      -0.00056900
Ca       6.16784585       4.61893821      21.03099418  F        0       0.00000000       0.00000000       0.00000000       0.00000000       0.00000000       0.00000000
Ca       3.95339365       1.28495933      24.84049462  T        1       0.00160200       0.00521600       0.00070500       0.00160200       0.00521600       0.00070500
Ca       5.07088599      11.11618043      30.85924527  T        1      -0.00424100       0.00305800      -0.00083300      -0.00424100       0.00305800      -0.00083300
Ca       4.05379613       7.78670707      28.63347477  T        1      -0.00262400       0.00537800       0.00996600      -0.00262400       0.00537800       0.00996600
Ca       6.10208539       4.71220293      25.08008036  T        1      -0.01220900       0.01808900       0.01411400      -0.01220900       0.01808900       0.01411400
Ca       7.31167710       1.35046005      19.04981971  F        0       0.00000000       0.00000000       0.00000000       0.00000000       0.00000000       0.00000000
Ca       8.45550835      11.15589428      24.99334121  F        0       0.00000000       0.00000000       0.00000000       0.00000000       0.00000000       0.00000000
Ca       7.31167710       7.88741636      23.01216674  F        0       0.00000000       0.00000000       0.00000000       0.00000000       0.00000000       0.00000000
Ca       9.59933960       4.61893821      19.04981971  F        0       0.00000000       0.00000000       0.00000000       0.00000000       0.00000000       0.00000000
Ca       7.31167710       1.35046005      23.01216674  F        0       0.00000000       0.00000000       0.00000000       0.00000000       0.00000000       0.00000000
Ca       8.45550835      11.15589428      28.95568824  F        0       0.00000000       0.00000000       0.00000000       0.00000000       0.00000000       0.00000000
Ca       7.25660079       7.88051410      26.80488469  T        1       0.00135900       0.00367200       0.00292200       0.00135900       0.00367200       0.00292200
Ca       9.59933960       4.61893821      23.01216674  F        0       0.00000000       0.00000000       0.00000000       0.00000000       0.00000000       0.00000000
Ca       7.38056633       1.33784591      26.83168640  T        1      -0.00044500       0.00527500       0.00155800      -0.00044500       0.00527500       0.00155800
Ca       8.48589162      11.16342146      32.86238113  T        1      -0.00266400       0.00100800      -0.00149000      -0.00266400       0.00100800      -0.00149000
Ca       7.48521457       7.91278739      30.70777446  T        1      -0.00431000       0.00801500       0.00280200      -0.00431000       0.00801500       0.00280200
Ca       9.64234841       4.63533636      26.97347120  T        1      -0.00252400       0.00263800      -0.00445400      -0.00252400       0.00263800      -0.00445400
Ca       0.44868958       1.35046005      15.08747268  F        0       0.00000000       0.00000000       0.00000000       0.00000000       0.00000000       0.00000000
Ca       1.59252083      11.15589428      21.03099418  F        0       0.00000000       0.00000000       0.00000000       0.00000000       0.00000000       0.00000000
Ca       0.44868958       7.88741636      19.04981971  F        0       0.00000000       0.00000000       0.00000000       0.00000000       0.00000000       0.00000000
Ca       2.73635209       4.61893821      15.08747268  F        0       0.00000000       0.00000000       0.00000000       0.00000000       0.00000000       0.00000000
Ca       0.44868958       1.35046005      19.04981971  F        0       0.00000000       0.00000000       0.00000000       0.00000000       0.00000000       0.00000000
Ca       1.59252083      11.15589428      24.99334121  F        0       0.00000000       0.00000000       0.00000000       0.00000000       0.00000000       0.00000000
Ca       0.53606977       7.96580818      22.85809166  T        1      -0.00164000      -0.00019100       0.00304800      -0.00164000      -0.00019100       0.00304800
Ca       2.73635209       4.61893821      19.04981971  F        0       0.00000000       0.00000000       0.00000000       0.00000000       0.00000000       0.00000000
Ca       0.50431756       1.32866697      22.89105085  T        1       0.00099100      -0.00106500      -0.00162500       0.00099100      -0.00106500      -0.00162500
Ca       1.63871084      11.13667077      28.89431954  T        1      -0.00490400       0.00225900       0.00032100      -0.00490400       0.00225900       0.00032100
Ca       0.55389575       7.93080522      26.71389070  T        1      -0.00144400       0.00783900       0.00307900      -0.00144400       0.00783900       0.00307900
Ca       2.70953333       4.62376818      22.96694211  T        1       0.00542100       0.00582800       0.00076900       0.00542100       0.00582800       0.00076900
C        5.14625813       6.50368279      26.72618353  T        2       0.00754400      -0.03504200      -0.00028500       0.00754400      -0.03504200      -0.00028500
C        4.89578604       5.42582798      27.50441993  T        2      -0.00008900       0.00135800       0.00404400      -0.00008900       0.00135800       0.00404400
H        5.12107269       4.33184430      27.28694739  T        2       0.00249200       0.02226600      -0.00316900       0.00249200       0.02226600      -0.00316900
H        4.40077438       5.40359114      28.52899238  T        2       0.01137000       0.01644200       0.01045700       0.01137000       0.01644200       0.01045700
40
Lattice="10.29448127746582 0.0 5.943521499633789 -8.005462438617674e-16 13.073912620544434 7.9246954917907715 0.0 0.0 39.623477935791016" Properties=species:S:1:pos:R:3:move_mask:L:1:tags:I:1:DFT_forces:R:3:forces:R:3 DFT_energy=-76.09375363 energy=-76.09375363 pbc="T T T"
Ca       3.88018334       1.35046005      17.06864524  F        0       0.00000000       0.00000000       0.00000000       0.00000000       0.00000000       0.00000000
Ca       5.02401459      11.15589428      23.01216674  F        0       0.00000000       0.00000000       0.00000000       0.00000000       0.00000000       0.00000000
Ca       3.88018334       7.88741636      21.03099418  F        0       0.00000000       0.00000000       0.00000000       0.00000000       0.00000000       0.00000000
Ca       6.16784585       4.61893821      17.06864524  F        0       0.00000000       0.00000000       0.00000000       0.00000000       0.00000000       0.00000000
Ca       3.88018334       1.35046005      21.03099418  F        0       0.00000000       0.00000000       0.00000000       0.00000000       0.00000000       0.00000000
Ca       5.02401459      11.15589428      26.97451568  F        0       0.00000000       0.00000000       0.00000000       0.00000000       0.00000000       0.00000000
Ca       4.04544784       7.88019227      24.94593149  T        1       0.00427100       0.00750300      -0.00032400       0.00427100       0.00750300      -0.00032400
Ca       6.16784585       4.61893821      21.03099418  F        0       0.00000000       0.00000000       0.00000000       0.00000000       0.00000000       0.00000000
Ca       3.96584414       1.30445160      24.84745966  T        1      -0.00091700       0.00340800       0.00177100      -0.00091700       0.00340800       0.00177100
Ca       5.06661103      11.11974592      30.86199552  T        1      -0.00503900       0.00503700       0.00149400      -0.00503900       0.00503700       0.00149400
Ca       4.06714774       7.75737661      28.62970907  T        1       0.00204300       0.01523700       0.00770900       0.00204300       0.01523700       0.00770900
Ca       6.13155438       4.71373124      25.08675840  T        1      -0.00061600       0.01185700       0.00593000      -0.00061600       0.01185700       0.00593000
Ca       7.31167710       1.35046005      19.04981971  F        0       0.00000000       0.00000000       0.00000000       0.00000000       0.00000000       0.00000000
Ca       8.45550835      11.15589428      24.99334121  F        0       0.00000000       0.00000000       0.00000000       0.00000000       0.00000000       0.00000000
Ca       7.31167710       7.88741636      23.01216674  F        0       0.00000000       0.00000000       0.00000000       0.00000000       0.00000000       0.00000000
Ca       9.59933960       4.61893821      19.04981971  F        0       0.00000000       0.00000000       0.00000000       0.00000000       0.00000000       0.00000000
Ca       7.31167710       1.35046005      23.01216674  F        0       0.00000000       0.00000000       0.00000000       0.00000000       0.00000000       0.00000000
Ca       8.45550835      11.15589428      28.95568824  F        0       0.00000000       0.00000000       0.00000000       0.00000000       0.00000000       0.00000000
Ca       7.25900601       7.87978128      26.80483920  T        1      -0.00634400      -0.00726500      -0.00931700      -0.00634400      -0.00726500      -0.00931700
Ca       9.59933960       4.61893821      23.01216674  F        0       0.00000000       0.00000000       0.00000000       0.00000000       0.00000000       0.00000000
Ca       7.38873257       1.31710657      26.83842879  T        1       0.00338500       0.00806900       0.00237600       0.00338500       0.00806900       0.00237600
Ca       8.49090489      11.15784512      32.85866019  T        1      -0.00464700       0.00230800       0.00045600      -0.00464700       0.00230800       0.00045600
Ca       7.48498645       7.92586502      30.70807663  T        1      -0.00089400      -0.00113800       0.00706600      -0.00089400      -0.00113800       0.00706600
Ca       9.64853420       4.62849557      26.97721720  T        1      -0.00245300       0.00422100      -0.00296200      -0.00245300       0.00422100      -0.00296200
Ca       0.44868958       1.35046005      15.08747268  F        0       0.00000000       0.00000000       0.00000000       0.00000000       0.00000000       0.00000000
Ca       1.59252083      11.15589428      21.03099418  F        0       0.00000000       0.00000000       0.00000000       0.00000000       0.00000000       0.00000000
Ca       0.44868958       7.88741636      19.04981971  F        0       0.00000000       0.00000000       0.00000000       0.00000000       0.00000000       0.00000000
Ca       2.73635209       4.61893821      15.08747268  F        0       0.00000000       0.00000000       0.00000000       0.00000000       0.00000000       0.00000000
Ca       0.44868958       1.35046005      19.04981971  F        0       0.00000000       0.00000000       0.00000000       0.00000000       0.00000000       0.00000000
Ca       1.59252083      11.15589428      24.99334121  F        0       0.00000000       0.00000000       0.00000000       0.00000000       0.00000000       0.00000000
Ca       0.54233335       7.96406601      22.86205388  T        1      -0.00301100       0.00198900       0.00235600      -0.00301100       0.00198900       0.00235600
Ca       2.73635209       4.61893821      19.04981971  F        0       0.00000000       0.00000000       0.00000000       0.00000000       0.00000000       0.00000000
Ca       0.51483004       1.31967295      22.89676274  T        1       0.00382000       0.00433400      -0.00020300       0.00382000       0.00433400      -0.00020300
Ca       1.63954318      11.13085020      28.88979266  T        1      -0.00246200      -0.00219500       0.00206800      -0.00246200      -0.00219500       0.00206800
Ca       0.55898499       7.92208883      26.71849939  T        1       0.00408400      -0.00245300       0.00254700       0.00408400      -0.00245300       0.00254700
Ca       2.71750942       4.62533760      22.97641627  T        1      -0.00038300       0.00519000      -0.00395600      -0.00038300       0.00519000      -0.00395600
C        5.19169552       6.49345156      26.73413297  T        2       0.02018300       0.01115100      -0.02099800       0.02018300       0.01115100      -0.02099800
C        4.48439450       5.44088294      27.20821648  T        2       0.00473800       0.02579400       0.02085200       0.00473800       0.02579400       0.02085200
H        4.52300089       4.35666824      26.86526622  T        2      -0.02937500       0.00086100       0.00248800      -0.02937500       0.00086100       0.00248800
H        3.72669515       5.43629218      28.05591677  T        2      -0.02902100      -0.00586900       0.00717700      -0.02902100      -0.00586900       0.00717700
40
Lattice="10.29448127746582 0.0 5.943521499633789 -8.005462438617674e-16 13.073912620544434 7.9246954917907715 0.0 0.0 39.623477935791016" Properties=species:S:1:pos:R:3:move_mask:L:1:tags:I:1:DFT_forces:R:3:forces:R:3 DFT_energy=-76.1069783 energy=-76.1069783 pbc="T T T"
Ca       3.88018334       1.35046005      17.06864524  F        0       0.00000000       0.00000000       0.00000000       0.00000000       0.00000000       0.00000000
Ca       5.02401459      11.15589428      23.01216674  F        0       0.00000000       0.00000000       0.00000000       0.00000000       0.00000000       0.00000000
Ca       3.88018334       7.88741636      21.03099418  F        0       0.00000000       0.00000000       0.00000000       0.00000000       0.00000000       0.00000000
Ca       6.16784585       4.61893821      17.06864524  F        0       0.00000000       0.00000000       0.00000000       0.00000000       0.00000000       0.00000000
Ca       3.88018334       1.35046005      21.03099418  F        0       0.00000000       0.00000000       0.00000000       0.00000000       0.00000000       0.00000000
Ca       5.02401459      11.15589428      26.97451568  F        0       0.00000000       0.00000000       0.00000000       0.00000000       0.00000000       0.00000000
Ca       4.02271928       7.93371727      24.90962211  T        1      -0.00208000       0.00231400       0.00580800      -0.00208000       0.00231400       0.00580800
Ca       6.16784585       4.61893821      21.03099418  F        0       0.00000000       0.00000000       0.00000000       0.00000000       0.00000000       0.00000000
Ca       3.96438389       1.33027366      24.85093901  T        1       0.00039600      -0.00237400      -0.00064700       0.00039600      -0.00237400      -0.00064700
Ca       5.06116789      11.13983121      30.87056929  T        1       0.00041500      -0.00028000       0.00028100       0.00041500      -0.00028000       0.00028100
Ca       4.07052506       7.79445284      28.63454876  T        1       0.00335700      -0.00968100      -0.01779800       0.00335700      -0.00968100      -0.01779800
Ca       6.08388354       4.74233682      25.13705552  T        1       0.00147200      -0.01223600      -0.00513300       0.00147200      -0.01223600      -0.00513300
Ca       7.31167710       1.35046005      19.04981971  F        0       0.00000000       0.00000000       0.00000000       0.00000000       0.00000000       0.00000000
Ca       8.45550835      11.15589428      24.99334121  F        0       0.00000000       0.00000000       0.00000000       0.00000000       0.00000000       0.00000000
Ca       7.31167710       7.88741636      23.01216674  F        0       0.00000000       0.00000000       0.00000000       0.00000000       0.00000000       0.00000000
Ca       9.59933960       4.61893821      19.04981971  F        0       0.00000000       0.00000000       0.00000000       0.00000000       0.00000000       0.00000000
Ca       7.31167710       1.35046005      23.01216674  F        0       0.00000000       0.00000000       0.00000000       0.00000000       0.00000000       0.00000000
Ca       8.45550835      11.15589428      28.95568824  F        0       0.00000000       0.00000000       0.00000000       0.00000000       0.00000000       0.00000000
Ca       7.24245106       7.86912721      26.81473116  T        1       0.00173400       0.00144100      -0.00138300       0.00173400       0.00144100      -0.00138300
Ca       9.59933960       4.61893821      23.01216674  F        0       0.00000000       0.00000000       0.00000000       0.00000000       0.00000000       0.00000000
Ca       7.39127692       1.33706396      26.84321223  T        1       0.00006900       0.00218400      -0.00124100       0.00006900       0.00218400      -0.00124100
Ca       8.48633328      11.16696906      32.86351772  T        1      -0.00105900       0.00203500       0.00051200      -0.00105900       0.00203500       0.00051200
Ca       7.48313335       7.92733443      30.71342869  T        1      -0.00493500      -0.00169900       0.00424000      -0.00493500      -0.00169900       0.00424000
Ca       9.63815858       4.63770488      26.97673605  T        1      -0.00226800      -0.00053800      -0.00190800      -0.00226800      -0.00053800      -0.00190800
Ca       0.44868958       1.35046005      15.08747268  F        0       0.00000000       0.00000000       0.00000000       0.00000000       0.00000000       0.00000000
Ca       1.59252083      11.15589428      21.03099418  F        0       0.00000000       0.00000000       0.00000000       0.00000000       0.00000000       0.00000000
Ca       0.44868958       7.88741636      19.04981971  F        0       0.00000000       0.00000000       0.00000000       0.00000000       0.00000000       0.00000000
Ca       2.73635209       4.61893821      15.08747268  F        0       0.00000000       0.00000000       0.00000000       0.00000000       0.00000000       0.00000000
Ca       0.44868958       1.35046005      19.04981971  F        0       0.00000000       0.00000000       0.00000000       0.00000000       0.00000000       0.00000000
Ca       1.59252083      11.15589428      24.99334121  F        0       0.00000000       0.00000000       0.00000000       0.00000000       0.00000000       0.00000000
Ca       0.53464160       7.97131204      22.86391855  T        1       0.00105400      -0.00096500      -0.00512400       0.00105400      -0.00096500      -0.00512400
Ca       2.73635209       4.61893821      19.04981971  F        0       0.00000000       0.00000000       0.00000000       0.00000000       0.00000000       0.00000000
Ca       0.52178859       1.33420504      22.89333014  T        1      -0.00217800       0.00196600       0.00267800      -0.00217800       0.00196600       0.00267800
Ca       1.63451287      11.13997260      28.89292103  T        1       0.00120600      -0.00415800      -0.00179100       0.00120600      -0.00415800      -0.00179100
Ca       0.56489445       7.93309943      26.71542658  T        1       0.00322000       0.00071500      -0.00160000       0.00322000       0.00071500      -0.00160000
Ca       2.71682707       4.64312971      22.97807483  T        1      -0.00146900       0.00043600      -0.00052700      -0.00146900       0.00043600      -0.00052700
C        5.16948904       6.53985545      26.74072611  T        2       0.00419300       0.04131000       0.01729800       0.00419300       0.04131000       0.01729800
C        4.15892964       5.65581574      26.96125324  T        2      -0.01297500      -0.03123900       0.00359900      -0.01297500      -0.03123900       0.00359900
H        4.01362572       4.62198377      26.51381059  T        2       0.01684700       0.00341400      -0.00555600       0.01684700       0.00341400      -0.00555600
H        3.25858225       5.78206357      27.65393341  T        2       0.00315300      -0.01829000       0.01876400       0.00315300      -0.01829000       0.01876400
40
Lattice="10.29448127746582 0.0 5.943521499633789 -8.005462438617674e-16 13.073912620544434 7.9246954917907715 0.0 0.0 39.623477935791016" Properties=species:S:1:pos:R:3:move_mask:L:1:tags:I:1:DFT_forces:R:3:forces:R:3 DFT_energy=-76.00682277 energy=-76.00682277 pbc="T T T"
Ca       3.88018334       1.35046005      17.06864524  F        0       0.00000000       0.00000000       0.00000000       0.00000000       0.00000000       0.00000000
Ca       5.02401459      11.15589428      23.01216674  F        0       0.00000000       0.00000000       0.00000000       0.00000000       0.00000000       0.00000000
Ca       3.88018334       7.88741636      21.03099418  F        0       0.00000000       0.00000000       0.00000000       0.00000000       0.00000000       0.00000000
Ca       6.16784585       4.61893821      17.06864524  F        0       0.00000000       0.00000000       0.00000000       0.00000000       0.00000000       0.00000000
Ca       3.88018334       1.35046005      21.03099418  F        0       0.00000000       0.00000000       0.00000000       0.00000000       0.00000000       0.00000000