74
Lattice="10.015546798706055 -7.081493488764266e-16 -5.782478332519531 3.820292657387555e-15 13.486069679260254 7.7099714279174805 -0.0 4.720995729762256e-15 38.54985809326172" Properties=species:S:1:pos:R:3:move_mask:L:1:tags:I:1:DFT_forces:R:3:forces:R:3:magmoms:R:1 DFT_energy=-519.90943465 energy=-519.90943465 dipole="_JSON [[0.0, 0.0, 0.0]]" magmom=0.0 free_energy=-519.9099191 pbc="T T T"
Zr       0.74053515       1.67905324      16.69063149  T        1      -0.01549300       0.00512100       0.00617100      -0.01549300       0.00512100       0.00617100       0.00000000
Zr       9.68698483      12.37543588      16.79265791  T        1      -0.00343600       0.01058400       0.00102600      -0.00343600       0.01058400       0.00102600       0.00000000
Zr       9.59935927       8.16573629      16.64929968  T        1      -0.00117400      -0.02093600      -0.00935700      -0.00117400      -0.02093600      -0.00935700       0.00000000
Zr       0.70625545       5.73220778      20.60363328  T        1       0.00650300       0.00752900      -0.00660800       0.00650300       0.00752900      -0.00660800       0.00000000
Sb       0.96566663      10.22539365      20.88452700  T        1      -0.00396900      -0.00665100       0.00250500      -0.00396900      -0.00665100       0.00250500       0.00000000
Sb       9.82898188       3.48499350      13.20162713  T        1       0.00800700       0.00228100       0.00035600       0.00800700       0.00228100       0.00035600       0.00000000
P        8.67157345       0.14726405      11.15698967  T        1      -0.01215300      -0.00456900      -0.00452600      -0.01215300      -0.00456900      -0.00452600       0.00000000
P        8.53364569       6.95631307      14.79692094  T        1      -0.00387500       0.00112500      -0.00221000      -0.00387500       0.00112500      -0.00221000       0.00000000
Zr       0.81279206       1.59104729      12.99014235  F        0       0.00000000       0.00000000       0.00000000      -0.04939700      -0.17585600      -0.09734200       0.00000000
Zr       9.71550047      12.31014061      12.99014139  F        0       0.00000000       0.00000000       0.00000000       0.27595400      -0.29587500       0.53108500       0.00000000
Zr       9.71550047       8.33408231      12.99014139  F        0       0.00000000       0.00000000       0.00000000      -0.03298500       0.40012600      -0.00250300       0.00000000
Zr       0.81279206       5.56710577      16.84512854  F        0       0.00000000       0.00000000       0.00000000       0.05406400      -0.48019800       0.09564100       0.00000000
Sb       0.81279206      10.32211161      16.84512758  F        0       0.00000000       0.00000000       0.00000000      -0.03898600       0.35877100      -0.02565200       0.00000000
Sb       9.71550047       3.57907629       9.13515615  F        0       0.00000000       0.00000000       0.00000000       0.02273300       0.01085700      -0.00150700       0.00000000
P        8.60266197       0.20755911       7.20766401  F        0       0.00000000       0.00000000       0.00000000      -0.24916000       0.20824800      -0.44066100       0.00000000
P        8.60266197       6.95059347      11.06265020  F        0       0.00000000       0.00000000       0.00000000       0.08780700       0.03010000      -0.02772600       0.00000000
Zr       0.81279206       1.59104729       9.13515615  F        0       0.00000000       0.00000000       0.00000000       0.58459100      -0.45101200       1.00497100       0.00000000
Zr       9.71550047      12.31014061       9.13515615  F        0       0.00000000       0.00000000       0.00000000       0.41402200      -1.01569200       0.73464800       0.00000000
Zr       9.71550047       8.33408231       9.13515615  F        0       0.00000000       0.00000000       0.00000000      -0.26614800      -0.03460100      -0.54256500       0.00000000
Zr       0.81279206       5.56710577      12.99014235  F        0       0.00000000       0.00000000       0.00000000      -0.27531200       0.71142800      -0.47154400       0.00000000
Sb       0.81279206      10.32211161      12.99014235  F        0       0.00000000       0.00000000       0.00000000      -0.08261800       0.54932800      -0.16654000       0.00000000
Sb       9.71550047       3.57907629       5.28016996  F        0       0.00000000       0.00000000       0.00000000      -0.27399600       0.15174500      -0.49687100       0.00000000
P        8.60266197       0.20755911       3.35267782  F        0       0.00000000       0.00000000       0.00000000      -0.40812400       0.45283100      -0.73360300       0.00000000
P        8.60266197       6.95059347       7.20766401  F        0       0.00000000       0.00000000       0.00000000       0.39399300      -0.40785400       0.78185600       0.00000000
Zr       4.06026915       1.67470895      14.77218851  T        1      -0.00325900       0.00497500      -0.00281200      -0.00325900       0.00497500      -0.00281200       0.00000000
Zr       3.01378818      12.40170929      20.66017440  T        1      -0.01046500      -0.00144800       0.00128300      -0.01046500      -0.00144800       0.00128300       0.00000000
Zr       3.19866846       8.12009253      20.53746097  T        1      -0.03148300      -0.00159700      -0.01168400      -0.03148300      -0.00159700      -0.01168400       0.00000000
Zr       4.11782025       5.69104608      18.70864843  T        1      -0.00483000       0.03439300       0.00166800      -0.00483000       0.03439300       0.00166800       0.00000000
Sb       4.19229430      10.32515748      18.83824812  T        1      -0.00020700       0.00428700       0.00585200      -0.00020700       0.00428700       0.00585200       0.00000000
Sb       3.16699613       3.42178455      17.06436535  T        1      -0.00154900       0.00403100       0.00992000      -0.00154900       0.00403100       0.00992000       0.00000000
P        1.97530612       0.14265370      15.01286275  T        1      -0.00802600      -0.00293500       0.00041700      -0.00802600      -0.00293500       0.00041700       0.00000000
P        1.89456639       6.94248788      18.72616432  T        1       0.01505200       0.00558900       0.01833000       0.01505200       0.00558900       0.01833000       0.00000000
Zr       4.15130758       1.59104729      11.06264830  F        0       0.00000000       0.00000000       0.00000000      -0.03561200      -0.16502900      -0.07127000       0.00000000
Zr       3.03846931      12.31014061      16.84512758  F        0       0.00000000       0.00000000       0.00000000       0.25465700      -0.23959900       0.44262200       0.00000000
Zr       3.03846931       8.33408231      16.84512758  F        0       0.00000000       0.00000000       0.00000000      -0.09504400       0.19860700      -0.16371100       0.00000000
Zr       4.15130758       5.56710577      14.91763449  F        0       0.00000000       0.00000000       0.00000000       0.05309400      -0.47692500       0.08949900       0.00000000
Sb       4.15130758      10.32211161      14.91763449  F        0       0.00000000       0.00000000       0.00000000       0.02004700       0.36261000      -0.05904900       0.00000000
Sb       3.03846931       3.57907629      12.99014235  F        0       0.00000000       0.00000000       0.00000000       0.02159800       0.00565800       0.00664700       0.00000000
P        1.92563057       0.20755911      11.06264830  F        0       0.00000000       0.00000000       0.00000000      -0.28590500       0.25681400      -0.46260500       0.00000000
P        1.92563057       6.95059347      14.91763449  F        0       0.00000000       0.00000000       0.00000000       0.04022400      -0.03913600       0.07660300       0.00000000
Zr       4.15130758       1.59104729       7.20766306  F        0       0.00000000       0.00000000       0.00000000       0.57403700      -0.45748400       1.00424000       0.00000000
Zr       3.03846931      12.31014061      12.99014235  F        0       0.00000000       0.00000000       0.00000000       0.42164900      -1.01305800       0.72378400       0.00000000
Zr       3.03846931       8.33408231      12.99014235  F        0       0.00000000       0.00000000       0.00000000      -0.34640500      -0.03305200      -0.50015300       0.00000000
Zr       4.15130758       5.56710577      11.06264830  F        0       0.00000000       0.00000000       0.00000000      -0.38524900       0.69290300      -0.58855900       0.00000000
Sb       4.15130758      10.32211161      11.06264925  F        0       0.00000000       0.00000000       0.00000000      -0.07056900       0.61501600      -0.18502700       0.00000000
Sb       3.03846931       3.57907629       9.13515615  F        0       0.00000000       0.00000000       0.00000000      -0.26751800       0.14295500      -0.48417200       0.00000000
P        1.92563057       0.20755911       7.20766306  F        0       0.00000000       0.00000000       0.00000000      -0.47084000       0.47363200      -0.81229800       0.00000000
P        1.92563057       6.95059347      11.06264830  F        0       0.00000000       0.00000000       0.00000000       0.47823600      -0.40645700       0.73465600       0.00000000
Zr       7.40479731       1.67780518      12.83475228  T        1      -0.00860700      -0.00398900       0.00798000      -0.00860700      -0.00398900       0.00798000       0.00000000
Zr       6.36011368      12.40398342      18.72908106  T        1      -0.00437700      -0.00335000      -0.00070300      -0.00437700      -0.00335000      -0.00070300       0.00000000
Zr       6.16691663       8.12027347      18.82112668  T        1      -0.01306500       0.00504000      -0.01448300      -0.01306500       0.00504000      -0.01448300       0.00000000
Zr       7.45947584       5.73192207      16.70315819  T        1      -0.01138300       0.00598800       0.00274400      -0.01138300       0.00598800       0.00274400       0.00000000
Sb       7.57140245      10.22900653      17.06222805  T        1       0.01172200      -0.00337900       0.00202500       0.01172200      -0.00337900       0.00202500       0.00000000
Sb       6.50163027       3.48466170      15.11915215  T        1      -0.00327400       0.00043100       0.00462100      -0.00327400       0.00043100       0.00462100       0.00000000
P        5.32976676       0.14360461      13.09843680  T        1      -0.00328600       0.00203800      -0.00294700      -0.00328600       0.00203800      -0.00294700       0.00000000
P        5.23988407       6.94345118      16.79290213  T        1       0.00737400       0.00112200       0.00938300       0.00737400       0.00112200       0.00938300       0.00000000
Zr       7.48982334       1.59104729       9.13515615  F        0       0.00000000       0.00000000       0.00000000      -0.05147800      -0.15850300      -0.08500500       0.00000000
Zr       6.37698460      12.31014061      14.91763449  F        0       0.00000000       0.00000000       0.00000000       0.32196900      -0.29635000       0.51442000       0.00000000
Zr       6.37698460       8.33408231      14.91763449  F        0       0.00000000       0.00000000       0.00000000       0.01408200       0.40776900      -0.04262200       0.00000000
Zr       7.48982334       5.56710577      12.99014235  F        0       0.00000000       0.00000000       0.00000000       0.09793300      -0.56744900       0.17228400       0.00000000
Sb       7.48982334      10.32211161      12.99014235  F        0       0.00000000       0.00000000       0.00000000       0.01966400       0.38847000       0.01093300       0.00000000
Sb       6.37698460       3.57907629      11.06264830  F        0       0.00000000       0.00000000       0.00000000      -0.00580300      -0.01521100      -0.04048000       0.00000000
P        5.26414633       0.20755911       9.13515615  F        0       0.00000000       0.00000000       0.00000000      -0.26825200       0.25756900      -0.47304500       0.00000000
P        5.26414633       6.95059347      12.99014235  F        0       0.00000000       0.00000000       0.00000000      -0.07329200       0.02816900       0.05991200       0.00000000
Zr       7.48982334       1.59104729       5.28017092  F        0       0.00000000       0.00000000       0.00000000       0.57118500      -0.45084800       1.01235600       0.00000000
Zr       6.37698460      12.31014061      11.06264925  F        0       0.00000000       0.00000000       0.00000000       0.39966000      -1.05495600       0.69504200       0.00000000
Zr       6.37698460       8.33408231      11.06264925  F        0       0.00000000       0.00000000       0.00000000      -0.31036000      -0.06446700      -0.53084000       0.00000000
Zr       7.48982334       5.56710577       9.13515615  F        0       0.00000000       0.00000000       0.00000000      -0.32569300       0.69538700      -0.62327300       0.00000000
Sb       7.48982334      10.32211161       9.13515615  F        0       0.00000000       0.00000000       0.00000000      -0.10636500       0.61540000      -0.16866500       0.00000000
Sb       6.37698460       3.57907629       7.20766306  F        0       0.00000000       0.00000000       0.00000000      -0.25874200       0.15579000      -0.49128800       0.00000000
P        5.26414633       0.20755911       5.28017092  F        0       0.00000000       0.00000000       0.00000000      -0.43503400       0.46017600      -0.72191000       0.00000000
P        5.26414633       6.95059347       9.13515615  F        0       0.00000000       0.00000000       0.00000000       0.45049900      -0.39614400       0.78049400       0.00000000
C        5.00709363       6.75304348      20.24069312  T        2      -0.00954200      -0.02177700       0.00356500      -0.00954200      -0.02177700       0.00356500       0.00000000
O        5.43475300       7.81669388      20.97897703  T        2       0.00198700       0.04149600       0.01627300       0.00198700       0.04149600       0.01627300       0.00000000
74
Lattice="10.015546798706055 -7.081493488764266e-16 -5.782478332519531 3.820292657387555e-15 13.486069679260254 7.7099714279174805 -0.0 4.720995729762256e-15 38.54985809326172" Properties=species:S:1:pos:R:3:move_mask:L:1:tags:I:1:DFT_forces:R:3:forces:R:3 DFT_energy=-519.67979469 energy=-519.67979469 pbc="T T T"
Zr       0.74667311       1.69143834      16.69968165  T        1      -0.00706800      -0.00082100       0.00629500      -0.00706800      -0.00082100       0.00629500
Zr       9.69047454      12.39376096      16.79964876  T        1      -0.00931900      -0.00438900       0.00080100      -0.00931900      -0.00438900       0.00080100
Zr       9.59127650       8.15836327      16.65095176  T        1       0.00785100       0.00463500      -0.00427700       0.00785100       0.00463500      -0.00427700
Zr       0.68737577       5.73090705      20.60188253  T        1       0.01790300       0.01204900       0.01270500       0.01790300       0.01204900       0.01270500
Sb       0.92902675      10.25488834      20.88171304  T        1       0.00180100       0.00816600      -0.00495400       0.00180100       0.00816600      -0.00495400
Sb       9.83454816       3.48347077      13.20333263  T        1      -0.00273800       0.00570400       0.00257300      -0.00273800       0.00570400       0.00257300
P        8.67115438       0.15640096      11.16301235  T        1      -0.00686600      -0.00375800       0.00278900      -0.00686600      -0.00375800       0.00278900
P        8.52520497       6.95774811      14.79487297  T        1       0.00069500      -0.01041400       0.00138900       0.00069500      -0.01041400       0.00138900
Zr       0.81279206       1.59104729      12.99014235  F        0       0.00000000       0.00000000       0.00000000       0.00000000       0.00000000       0.00000000
Zr       9.71550047      12.31014061      12.99014139  F        0       0.00000000       0.00000000       0.00000000       0.00000000       0.00000000       0.00000000
Zr       9.71550047       8.33408231      12.99014139  F        0       0.00000000       0.00000000       0.00000000       0.00000000       0.00000000       0.00000000
Zr       0.81279206       5.56710577      16.84512854  F        0       0.00000000       0.00000000       0.00000000       0.00000000       0.00000000       0.00000000
Sb       0.81279206      10.32211161      16.84512758  F        0       0.00000000       0.00000000       0.00000000       0.00000000       0.00000000       0.00000000
Sb       9.71550047       3.57907629       9.13515615  F        0       0.00000000       0.00000000       0.00000000       0.00000000       0.00000000       0.00000000
P        8.60266197       0.20755911       7.20766401  F        0       0.00000000       0.00000000       0.00000000       0.00000000       0.00000000       0.00000000
P        8.60266197       6.95059347      11.06265020  F        0       0.00000000       0.00000000       0.00000000       0.00000000       0.00000000       0.00000000
Zr       0.81279206       1.59104729       9.13515615  F        0       0.00000000       0.00000000       0.00000000       0.00000000       0.00000000       0.00000000
Zr       9.71550047      12.31014061       9.13515615  F        0       0.00000000       0.00000000       0.00000000       0.00000000       0.00000000       0.00000000
Zr       9.71550047       8.33408231       9.13515615  F        0       0.00000000       0.00000000       0.00000000       0.00000000       0.00000000       0.00000000
Zr       0.81279206       5.56710577      12.99014235  F        0       0.00000000       0.00000000       0.00000000       0.00000000       0.00000000       0.00000000
Sb       0.81279206      10.32211161      12.99014235  F        0       0.00000000       0.00000000       0.00000000       0.00000000       0.00000000       0.00000000
Sb       9.71550047       3.57907629       5.28016996  F        0       0.00000000       0.00000000       0.00000000       0.00000000       0.00000000       0.00000000
P        8.60266197       0.20755911       3.35267782  F        0       0.00000000       0.00000000       0.00000000       0.00000000       0.00000000       0.00000000
P        8.60266197       6.95059347       7.20766401  F        0       0.00000000       0.00000000       0.00000000       0.00000000       0.00000000       0.00000000
Zr       4.06388984       1.68613330      14.78194731  T        1      -0.00021200       0.00787700       0.01404900      -0.00021200       0.00787700       0.01404900
Zr       3.00838166      12.41113828      20.66589694  T        1       0.00395600       0.00750000       0.00094800       0.00395600       0.00750000       0.00094800
Zr       3.13093715       8.14039307      20.61950375  T        1      -0.10871000      -0.03734200      -0.06377100      -0.10871000      -0.03734200      -0.06377100
Zr       4.14961387       5.74788521      18.76397271  T        1       0.03302300      -0.00855500       0.01523900       0.03302300      -0.00855500       0.01523900
Sb       4.20073060      10.30767139      18.87587118  T        1      -0.03347900      -0.01742600       0.00164000      -0.03347900      -0.01742600       0.00164000
Sb       3.18276568       3.44836580      17.09416846  T        1      -0.00675000       0.00000500       0.00516000      -0.00675000       0.00000500       0.00516000
P        1.97883286       0.15700170      15.01893118  T        1      -0.00426800       0.00129000       0.00551100      -0.00426800       0.00129000       0.00551100
P        1.89907804       6.94789361      18.73458542  T        1      -0.00519100      -0.01128300      -0.01278300      -0.00519100      -0.01128300      -0.01278300
Zr       4.15130758       1.59104729      11.06264830  F        0       0.00000000       0.00000000       0.00000000       0.00000000       0.00000000       0.00000000
Zr       3.03846931      12.31014061      16.84512758  F        0       0.00000000       0.00000000       0.00000000       0.00000000       0.00000000       0.00000000
Zr       3.03846931       8.33408231      16.84512758  F        0       0.00000000       0.00000000       0.00000000       0.00000000       0.00000000       0.00000000
Zr       4.15130758       5.56710577      14.91763449  F        0       0.00000000       0.00000000       0.00000000       0.00000000       0.00000000       0.00000000
Sb       4.15130758      10.32211161      14.91763449  F        0       0.00000000       0.00000000       0.00000000       0.00000000       0.00000000       0.00000000
Sb       3.03846931       3.57907629      12.99014235  F        0       0.00000000       0.00000000       0.00000000       0.00000000       0.00000000       0.00000000
P        1.92563057       0.20755911      11.06264830  F        0       0.00000000       0.00000000       0.00000000       0.00000000       0.00000000       0.00000000
P        1.92563057       6.95059347      14.91763449  F        0       0.00000000       0.00000000       0.00000000       0.00000000       0.00000000       0.00000000
Zr       4.15130758       1.59104729       7.20766306  F        0       0.00000000       0.00000000       0.00000000       0.00000000       0.00000000       0.00000000
Zr       3.03846931      12.31014061      12.99014235  F        0       0.00000000       0.00000000       0.00000000       0.00000000       0.00000000       0.00000000
Zr       3.03846931       8.33408231      12.99014235  F        0       0.00000000       0.00000000       0.00000000       0.00000000       0.00000000       0.00000000
Zr       4.15130758       5.56710577      11.06264830  F        0       0.00000000       0.00000000       0.00000000       0.00000000       0.00000000       0.00000000
Sb       4.15130758      10.32211161      11.06264925  F        0       0.00000000       0.00000000       0.00000000       0.00000000       0.00000000       0.00000000
Sb       3.03846931       3.57907629       9.13515615  F        0       0.00000000       0.00000000       0.00000000       0.00000000       0.00000000       0.00000000
P        1.92563057       0.20755911       7.20766306  F        0       0.00000000       0.00000000       0.00000000       0.00000000       0.00000000       0.00000000
P        1.92563057       6.95059347      11.06264830  F        0       0.00000000       0.00000000       0.00000000       0.00000000       0.00000000       0.00000000
Zr       7.40127263       1.67994084      12.84009332  T        1      -0.00264800      -0.00195600       0.00322900      -0.00264800      -0.00195600       0.00322900
Zr       6.36064191      12.39987549      18.72839458  T        1      -0.00895500      -0.00335700       0.00993000      -0.00895500      -0.00335700       0.00993000
Zr       6.19082574       8.13668731      18.75755074  T        1      -0.02717300       0.00052600       0.01117600      -0.02717300       0.00052600       0.01117600
Zr       7.44827036       5.74880924      16.71659608  T        1      -0.00672100       0.01302800       0.01720200      -0.00672100       0.01302800       0.01720200
Sb       7.58256157      10.25176909      17.03890216  T        1      -0.02172300      -0.02325500       0.02523800      -0.02172300      -0.02325500       0.02523800
Sb       6.50219550       3.48842210      15.12438908  T        1       0.00138900       0.00302300       0.00474300       0.00138900       0.00302300       0.00474300
P        5.32671558       0.14871101      13.10130888  T        1      -0.00129200       0.00010200       0.00573300      -0.00129200       0.00010200       0.00573300
P        5.22670506       6.94592408      16.78992695  T        1      -0.00145700       0.00717600      -0.00530700      -0.00145700       0.00717600      -0.00530700
Zr       7.48982334       1.59104729       9.13515615  F        0       0.00000000       0.00000000       0.00000000       0.00000000       0.00000000       0.00000000
Zr       6.37698460      12.31014061      14.91763449  F        0       0.00000000       0.00000000       0.00000000       0.00000000       0.00000000       0.00000000
Zr       6.37698460       8.33408231      14.91763449  F        0       0.00000000       0.00000000       0.00000000       0.00000000       0.00000000       0.00000000
Zr       7.48982334       5.56710577      12.99014235  F        0       0.00000000       0.00000000       0.00000000       0.00000000       0.00000000       0.00000000
Sb       7.48982334      10.32211161      12.99014235  F        0       0.00000000       0.00000000       0.00000000       0.00000000       0.00000000       0.00000000
Sb       6.37698460       3.57907629      11.06264830  F        0       0.00000000       0.00000000       0.00000000       0.00000000       0.00000000       0.00000000
P        5.26414633       0.20755911       9.13515615  F        0       0.00000000       0.00000000       0.00000000       0.00000000       0.00000000       0.00000000
P        5.26414633       6.95059347      12.99014235  F        0       0.00000000       0.00000000       0.00000000       0.00000000       0.00000000       0.00000000
Zr       7.48982334       1.59104729       5.28017092  F        0       0.00000000       0.00000000       0.00000000       0.00000000       0.00000000       0.00000000
Zr       6.37698460      12.31014061      11.06264925  F        0       0.00000000       0.00000000       0.00000000       0.00000000       0.00000000       0.00000000
Zr       6.37698460       8.33408231      11.06264925  F        0       0.00000000       0.00000000       0.00000000       0.00000000       0.00000000       0.00000000
Zr       7.48982334       5.56710577       9.13515615  F        0       0.00000000       0.00000000       0.00000000       0.00000000       0.00000000       0.00000000
Sb       7.48982334      10.32211161       9.13515615  F        0       0.00000000       0.00000000       0.00000000       0.00000000       0.00000000       0.00000000
Sb       6.37698460       3.57907629       7.20766306  F        0       0.00000000       0.00000000       0.00000000       0.00000000       0.00000000       0.00000000
P        5.26414633       0.20755911       5.28017092  F        0       0.00000000       0.00000000       0.00000000       0.00000000       0.00000000       0.00000000
P        5.26414633       6.95059347       9.13515615  F        0       0.00000000       0.00000000       0.00000000       0.00000000       0.00000000       0.00000000
C        4.95587495       6.82719803      20.35471331  T        2      -0.11760700      -0.17777000       0.08324300      -0.11760700      -0.17777000       0.08324300
O        5.06743874       7.65416323      21.41038734  T        2       0.29058400       0.10669200      -0.28664300       0.29058400       0.10669200      -0.28664300
74
Lattice="10.015546798706055 -7.081493488764266e-16 -5.782478332519531 3.820292657387555e-15 13.486069679260254 7.7099714279174805 -0.0 4.720995729762256e-15 38.54985809326172" Properties=species:S:1:pos:R:3:move_mask:L:1:tags:I:1:DFT_forces:R:3:forces:R:3 DFT_energy=-519.09926587 energy=-519.09926587 pbc="T T T"
Zr       0.75395815       1.68958298      16.69537477  T        1      -0.01819500      -0.00109600       0.01242500      -0.01819500      -0.00109600       0.01242500
Zr       9.69755497      12.39962675      16.79553629  T        1      -0.00099500       0.01484300       0.00386200      -0.00099500       0.01484300       0.00386200
Zr       9.58474330       8.15604811      16.65410963  T        1       0.00128000      -0.00763700      -0.00018700       0.00128000      -0.00763700      -0.00018700
Zr       0.66944522       5.72012715      20.58787618  T        1       0.00210900       0.00545100       0.02394200       0.00210900       0.00545100       0.02394200
Sb       0.92497596      10.25640132      20.88447063  T        1      -0.00754900       0.01954100       0.00741400      -0.00754900       0.01954100       0.00741400
Sb       9.83797783       3.47904967      13.20064886  T        1       0.00456700      -0.01967900      -0.01443900       0.00456700      -0.01967900      -0.01443900
P        8.67937655       0.16333376      11.16089149  T        1      -0.00298500      -0.00410300       0.00091200      -0.00298500      -0.00410300       0.00091200
P        8.52555078       6.96270768      14.79084114  T        1      -0.01835400       0.00001500      -0.01882000      -0.01835400       0.00001500      -0.01882000
Zr       0.81279206       1.59104729      12.99014235  F        0       0.00000000       0.00000000       0.00000000       0.00000000       0.00000000       0.00000000
Zr       9.71550047      12.31014061      12.99014139  F        0       0.00000000       0.00000000       0.00000000       0.00000000       0.00000000       0.00000000
Zr       9.71550047       8.33408231      12.99014139  F        0       0.00000000       0.00000000       0.00000000       0.00000000       0.00000000       0.00000000
Zr       0.81279206       5.56710577      16.84512854  F        0       0.00000000       0.00000000       0.00000000       0.00000000       0.00000000       0.00000000
Sb       0.81279206      10.32211161      16.84512758  F        0       0.00000000       0.00000000       0.00000000       0.00000000       0.00000000       0.00000000
Sb       9.71550047       3.57907629       9.13515615  F        0       0.00000000       0.00000000       0.00000000       0.00000000       0.00000000       0.00000000
P        8.60266197       0.20755911       7.20766401  F        0       0.00000000       0.00000000       0.00000000       0.00000000       0.00000000       0.00000000
P        8.60266197       6.95059347      11.06265020  F        0       0.00000000       0.00000000       0.00000000       0.00000000       0.00000000       0.00000000