98
Lattice="12.405692100524902 0.0 -1.9949874780313733e-15 -6.202846050262451 13.822074890136719 -1.1518396139144897 0.0 0.0 33.40334701538086" Properties=species:S:1:pos:R:3:move_mask:L:1:tags:I:1:DFT_forces:R:3:forces:R:3:magmoms:R:1 DFT_energy=-614.44317523 energy=-614.44317523 dipole="_JSON [[0.0, 0.0, 0.0]]" magmom=0.0 free_energy=-614.49270377 pbc="T T T"
Co      -1.40220257      13.80561189      14.01539639  T        1       0.00239000      -0.00132300       0.01619200       0.00239000      -0.00132300       0.01619200       0.00000000
Co       4.66901978       2.36375761       9.50328380  F        0       0.00000000       0.00000000       0.00000000       0.77203800       0.59304500       0.68241300       0.00000000
Co       7.77044269       1.21191812      12.38288337  F        0       0.00000000       0.00000000       0.00000000      -0.05908100       0.00912200      -0.28050900       0.00000000
Co       4.86743399       3.11705787      16.06679180  T        1      -0.00110700       0.01049400       0.00864200      -0.00110700       0.01049400       0.00864200       0.00000000
Co       4.66901978       5.24335670      10.65512305  F        0       0.00000000       0.00000000       0.00000000       0.44500300      -0.20798600      -0.07619800       0.00000000
Co       1.56759675       4.09151697      13.53472167  F        0       0.00000000       0.00000000       0.00000000       0.15628900       0.32529100      -0.00810000       0.00000000
Co       4.66901978       4.09151697      13.53472167  F        0       0.00000000       0.00000000       0.00000000      -0.14396600       0.32299200      -0.00625800       0.00000000
Co       1.37353444       3.12253825      16.06596913  T        1       0.00755600      -0.00044600       0.00415700       0.00755600      -0.00044600       0.00415700       0.00000000
Co       1.56759675       5.24335670      10.65512305  F        0       0.00000000       0.00000000       0.00000000      -0.44768400      -0.20795200      -0.07204200       0.00000000
Co       7.77044269       2.36375761       9.50328380  F        0       0.00000000       0.00000000       0.00000000      -0.75304800       0.58772500       0.67455400       0.00000000
Co       4.66901978       1.21191812      12.38288337  F        0       0.00000000       0.00000000       0.00000000       0.04689600      -0.01272500      -0.21087700       0.00000000
Co       1.48896396      13.74210837      14.00878334  T        1      -0.01302900       0.00113000       0.00193500      -0.01302900       0.00113000       0.00193500       0.00000000
Nb       3.11830827       3.22763729      11.51900321  F        0       0.00000000       0.00000000       0.00000000       0.00402300      -0.36362200       0.17240300       0.00000000
Nb       6.24183474       2.07008344      14.40594034  T        1      -0.00884900       0.00161600      -0.00143000      -0.00884900       0.00161600      -0.00143000       0.00000000
Nb       6.21973129       4.37947702       8.63940364  F        0       0.00000000       0.00000000       0.00000000      -0.00290700      -0.44103200       1.40265500       0.00000000
Nb      -3.08453778      13.01827376      12.09492201  F        0       0.00000000       0.00000000       0.00000000      -0.00041300       0.01069200       0.60067300       0.00000000
Nb       3.12246924       4.86979311      15.59023639  T        1      -0.00814600       0.00906100      -0.01303200      -0.00814600       0.00906100      -0.01303200       0.00000000
Nb       6.21973129       0.34803843      10.36716300  F        0       0.00000000       0.00000000       0.00000000      -0.00539100       0.07612900       0.01238100       0.00000000
Sn       6.21973129       3.22763729      11.51900321  F        0       0.00000000       0.00000000       0.00000000      -0.03148100      -0.12659400      -0.31756300       0.00000000
Sn       3.11937091       1.97183927      14.54564425  T        1      -0.00602300       0.01139300       0.02242400      -0.00602300       0.01139300       0.02242400       0.00000000
Sn       3.11830827       4.37947702       8.63940364  F        0       0.00000000       0.00000000       0.00000000      -0.00576900      -0.00554700      -0.69581600       0.00000000
Sn       0.01688524      13.01827376      12.09492201  F        0       0.00000000       0.00000000       0.00000000      -0.03835000      -0.20976600      -0.80641300       0.00000000
Sn       6.24068872       5.26347110      15.74938972  T        1      -0.01359000       0.01719600      -0.00771400      -0.01359000       0.01719600      -0.00771400       0.00000000
Sn       3.11830827       0.34803843      10.36716300  F        0       0.00000000       0.00000000       0.00000000       0.01201900      -0.16620600      -0.91557500       0.00000000
Co       1.77288088       7.04756535      14.63544789  T        1      -0.01082700       0.00706800       0.01584600      -0.01082700       0.00706800       0.01584600       0.00000000
Co       1.56759675       9.27479506       8.92736369  F        0       0.00000000       0.00000000       0.00000000       0.78978200       0.57972100       0.69107800       0.00000000
Co       4.66901978       8.12295580      11.80696231  F        0       0.00000000       0.00000000       0.00000000       0.06824400      -0.16666200      -0.28386900       0.00000000
Co       1.83525859       9.77135725      15.55983532  T        1       0.00499100      -0.00313900       0.00118400       0.00499100      -0.00313900       0.00118400       0.00000000
Co       1.56759675      12.15439367      10.07920295  F        0       0.00000000       0.00000000       0.00000000       0.41789700      -0.20300300      -0.12345700       0.00000000
Co      -1.53382615      11.00255442      12.95880157  F        0       0.00000000       0.00000000       0.00000000       0.14956000       0.30445500       0.02007900       0.00000000
Co       1.56759675      11.00255442      12.95880157  F        0       0.00000000       0.00000000       0.00000000      -0.40288000       0.33374100       0.12878100       0.00000000
Co      -1.68929367      10.06913946      15.49458547  T        1       0.00212600      -0.01354600       0.00884300       0.00212600      -0.01354600       0.00884300       0.00000000
Co      -1.53382615      12.15439367      10.07920295  F        0       0.00000000       0.00000000       0.00000000      -0.42979500      -0.21508900      -0.07762200       0.00000000
Co       4.66901978       9.27479506       8.92736369  F        0       0.00000000       0.00000000       0.00000000      -0.78948500       0.57976600       0.69109900       0.00000000
Co       1.56759675       8.12295580      11.80696231  F        0       0.00000000       0.00000000       0.00000000      -0.05753500      -0.17001000      -0.28787800       0.00000000
Co       4.46528566       7.04486589      14.63726935  T        1       0.02738600       0.00797200       0.01222200       0.02738600       0.00797200       0.01222200       0.00000000
Nb       0.01688524      10.13867426      10.94308311  F        0       0.00000000       0.00000000       0.00000000      -0.06210000      -0.29830200      -0.02091900       0.00000000
Nb       3.11929046       9.07416432      13.68480177  T        1      -0.00217400       0.00716900      -0.00332400      -0.00217400       0.00716900      -0.00332400       0.00000000
Nb       3.11830827      11.29051447       8.06348449  F        0       0.00000000       0.00000000       0.00000000       0.00369000      -0.42699900       1.40805800       0.00000000
Nb       0.01688524       6.10723639      12.67084152  F        0       0.00000000       0.00000000       0.00000000      -0.04662300      -0.04619000       0.50868600       0.00000000
Nb       0.00593688      11.79268517      14.89218970  T        1      -0.00531900       0.00027200       0.00471700      -0.00531900       0.00027200       0.00471700       0.00000000
Nb       3.11830827       7.25907564       9.79124385  F        0       0.00000000       0.00000000       0.00000000       0.00308900       0.02842400      -0.02165800       0.00000000
Sn       3.11830827      10.13867426      10.94308311  F        0       0.00000000       0.00000000       0.00000000      -0.01254500       0.05899500      -0.84410600       0.00000000
Sn       0.00177439       8.90232331      13.93401902  T        1       0.01516400       0.00686800       0.02411600       0.01516400       0.00686800       0.02411600       0.00000000
Sn       0.01688524      11.29051447       8.06348449  F        0       0.00000000       0.00000000       0.00000000       0.00095200      -0.01592200      -0.68662000       0.00000000
Sn       3.11830827       6.10723639      12.67084152  F        0       0.00000000       0.00000000       0.00000000      -0.01850500      -0.31468800      -0.34023000       0.00000000
Sn       3.11818877      12.01347963      15.20991975  T        1      -0.00079700       0.00405700      -0.00557900      -0.00079700       0.00405700      -0.00557900       0.00000000
Sn       0.01688524       7.25907564       9.79124385  F        0       0.00000000       0.00000000       0.00000000      -0.00262500      -0.17744000      -0.92390600       0.00000000
Co       4.75319085      13.74076239      14.01390483  T        1       0.00797200       0.00405700      -0.00873800       0.00797200       0.00405700      -0.00873800       0.00000000
Co      10.87186547       2.36375761       9.50328380  F        0       0.00000000       0.00000000       0.00000000       0.75447600       0.58967700       0.67607100       0.00000000
Co       1.56759663       1.21191812      12.38288337  F        0       0.00000000       0.00000000       0.00000000      -0.03961100      -0.01480800      -0.21077200       0.00000000
Co      10.98016036       3.14443018      16.06692074  T        1       0.00117500      -0.00391600       0.01041200       0.00117500      -0.00391600       0.01041200       0.00000000
Co      -1.53382663       5.24335670      10.65512305  F        0       0.00000000       0.00000000       0.00000000       0.43662600      -0.20033400      -0.03453600       0.00000000
Co       7.77044269       4.09151697      13.53472167  F        0       0.00000000       0.00000000       0.00000000       0.14053300       0.18086400      -0.07418900       0.00000000
Co      -1.53382663       4.09151697      13.53472167  F        0       0.00000000       0.00000000       0.00000000      -0.12781800       0.18360700      -0.07651800       0.00000000
Co       7.67346720       3.14139939      16.06857996  T        1      -0.01415700      -0.00054400       0.01223600      -0.01415700      -0.00054400       0.01223600       0.00000000
Co       7.77044269       5.24335670      10.65512305  F        0       0.00000000       0.00000000       0.00000000      -0.43988300      -0.19959400      -0.03522700       0.00000000
Co       1.56759663       2.36375761       9.50328380  F        0       0.00000000       0.00000000       0.00000000      -0.77100100       0.59307100       0.68154700       0.00000000
Co      10.87186547       1.21191812      12.38288337  F        0       0.00000000       0.00000000       0.00000000       0.06600800       0.00901900      -0.28139200       0.00000000
Co      -4.76436725      13.80444605      14.01661262  T        1      -0.01235700      -0.00166200       0.00416300      -0.01235700      -0.00166200       0.00416300       0.00000000
Nb       9.32115432       3.22763729      11.51900321  F        0       0.00000000       0.00000000       0.00000000       0.00437700      -0.34854100       0.09268800       0.00000000
Nb      -0.00067355       2.06992316      14.40498877  T        1       0.00302700      -0.00122500       0.00180400       0.00302700      -0.00122500       0.00180400       0.00000000
Nb       0.01688500       4.37947702       8.63940364  F        0       0.00000000       0.00000000       0.00000000       0.01232000      -0.43937800       1.40330900       0.00000000
Nb       3.11830827      13.01827376      12.09492201  F        0       0.00000000       0.00000000       0.00000000       0.00316400      -0.04468800       0.55680900       0.00000000
Nb       9.32463851       4.90659067      15.45804551  T        1       0.00053700      -0.00139900      -0.00360700       0.00053700      -0.00139900      -0.00360700       0.00000000
Nb       0.01688500       0.34803843      10.36716300  F        0       0.00000000       0.00000000       0.00000000       0.01238400       0.07693300       0.01018000       0.00000000
Sn       0.01688500       3.22763729      11.51900321  F        0       0.00000000       0.00000000       0.00000000       0.01123000      -0.12288000      -0.32030000       0.00000000
Sn       9.32289288       1.94353975      14.52622712  T        1       0.00750700       0.00659500       0.01027500       0.00750700       0.00659500       0.01027500       0.00000000
Sn       9.32115432       4.37947702       8.63940364  F        0       0.00000000       0.00000000       0.00000000      -0.00414900      -0.00984800      -0.72035600       0.00000000
Sn       6.21973105      13.01827376      12.09492201  F        0       0.00000000       0.00000000       0.00000000      -0.00178800      -0.20739500      -0.79404200       0.00000000
Sn       0.00433486       5.27078460      15.74775905  T        1      -0.00245200       0.00173300      -0.00988300      -0.00245200       0.00173300      -0.00988300       0.00000000
Sn       9.32115432       0.34803843      10.36716300  F        0       0.00000000       0.00000000       0.00000000       0.00946800      -0.16402000      -0.94785500       0.00000000
Co       7.86887882       6.91382385      14.54645650  T        1       0.01313800      -0.02130800       0.01052500       0.01313800      -0.02130800       0.01052500       0.00000000
Co       7.77044269       9.27479506       8.92736369  F        0       0.00000000       0.00000000       0.00000000       0.76677300       0.57661200       0.70007000       0.00000000
Co      -1.53382663       8.12295580      11.80696231  F        0       0.00000000       0.00000000       0.00000000      -0.09962700      -0.01301700      -0.23764000       0.00000000
Co      -4.47478952      10.06824046      15.49374184  T        1      -0.00300800      -0.00537600       0.01439900      -0.00300800      -0.00537600       0.01439900       0.00000000
Co      -4.63524942      12.15439367      10.07920295  F        0       0.00000000       0.00000000       0.00000000       0.42734800      -0.21561000      -0.07807300       0.00000000
Co       4.66901978      11.00255442      12.95880157  F        0       0.00000000       0.00000000       0.00000000       0.41385900       0.33688900       0.13272400       0.00000000
Co      -4.63524942      11.00255442      12.95880157  F        0       0.00000000       0.00000000       0.00000000      -0.14903700       0.30262400       0.02301800       0.00000000
Co       4.39365013       9.76633679      15.56386687  T        1       0.00568800       0.01599800       0.00419100       0.00568800       0.01599800       0.00419100       0.00000000
Co       4.66901978      12.15439367      10.07920295  F        0       0.00000000       0.00000000       0.00000000      -0.42001100      -0.20213800      -0.12793400       0.00000000
Co      -1.53382663       9.27479506       8.92736369  F        0       0.00000000       0.00000000       0.00000000      -0.76506800       0.57572500       0.69881500       0.00000000
Co       7.77044269       8.12295580      11.80696231  F        0       0.00000000       0.00000000       0.00000000       0.09847600      -0.01039400      -0.23053300       0.00000000
Co      -1.63684694       6.91235167      14.54943110  T        1      -0.00093500      -0.01142400       0.00464100      -0.00093500      -0.01142400       0.00464100       0.00000000
Nb       6.21973129      10.13867426      10.94308311  F        0       0.00000000       0.00000000       0.00000000       0.07095400      -0.30167500      -0.01250700       0.00000000
Nb      -3.08329775       8.99586197      13.82343001  T        1      -0.00310800      -0.00338800       0.00092900      -0.00310800      -0.00338800       0.00092900       0.00000000
Nb      -3.08453778      11.29051447       8.06348449  F        0       0.00000000       0.00000000       0.00000000       0.00464400      -0.43428600       1.40413700       0.00000000
Nb       6.21973129       6.10723639      12.67084152  F        0       0.00000000       0.00000000       0.00000000       0.04278700      -0.03825500       0.51808000       0.00000000
Nb       6.23310629      11.79382864      14.89367444  T        1       0.00304300      -0.00168000      -0.00276600       0.00304300      -0.00168000      -0.00276600       0.00000000
Nb      -3.08453778       7.25907564       9.79124385  F        0       0.00000000       0.00000000       0.00000000       0.00319800       0.04947600      -0.01831800       0.00000000
Sn      -3.08453778      10.13867426      10.94308311  F        0       0.00000000       0.00000000       0.00000000      -0.01088700      -0.12619000      -0.36924300       0.00000000
Sn       6.23384647       8.90441509      13.94046947  T        1      -0.00534700      -0.00436600       0.00976800      -0.00534700      -0.00436600       0.00976800       0.00000000
Sn       6.21973129      11.29051447       8.06348449  F        0       0.00000000       0.00000000       0.00000000      -0.01031800      -0.01630100      -0.68892900       0.00000000
Sn       9.32115432       6.10723639      12.67084152  F        0       0.00000000       0.00000000       0.00000000      -0.02183700      -0.27348500      -0.88303400       0.00000000
Sn      -3.08378850      12.21700960      15.27593021  T        1       0.00463100       0.00023500      -0.01458300       0.00463100       0.00023500      -0.01458300       0.00000000
Sn       6.21973129       7.25907564       9.79124385  F        0       0.00000000       0.00000000       0.00000000       0.02508300      -0.17542100      -0.92526600       0.00000000
C        3.11772718       6.91889582      16.14329805  T        2      -0.00060700      -0.02290500       0.03545200      -0.00060700      -0.02290500       0.03545200       0.00000000
C        3.11373004       8.28332375      15.98078242  T        2       0.00352900       0.03413200       0.00755500       0.00352900       0.03413200       0.00755500       0.00000000
98
Lattice="12.405692100524902 0.0 -1.9949874780313733e-15 -6.202846050262451 13.822074890136719 -1.1518396139144897 0.0 0.0 33.40334701538086" Properties=species:S:1:pos:R:3:move_mask:L:1:tags:I:1:DFT_forces:R:3:forces:R:3 DFT_energy=-613.23187001 energy=-613.23187001 pbc="T T T"
Co      -1.42407350      13.77929595      14.00465702  T        1      -0.00297800       0.00272900      -0.00213400      -0.00297800       0.00272900      -0.00213400
Co       4.66901978       2.36375761       9.50328380  F        0       0.00000000       0.00000000       0.00000000       0.00000000       0.00000000       0.00000000
Co       7.77044269       1.21191812      12.38288337  F        0       0.00000000       0.00000000       0.00000000       0.00000000       0.00000000       0.00000000
Co       4.86854914       3.15873895      16.03844381  T        1       0.00209200       0.00309400       0.00134200       0.00209200       0.00309400       0.00134200
Co       4.66901978       5.24335670      10.65512305  F        0       0.00000000       0.00000000       0.00000000       0.00000000       0.00000000       0.00000000
Co       1.56759675       4.09151697      13.53472167  F        0       0.00000000       0.00000000       0.00000000       0.00000000       0.00000000       0.00000000
Co       4.66901978       4.09151697      13.53472167  F        0       0.00000000       0.00000000       0.00000000       0.00000000       0.00000000       0.00000000
Co       1.41719568       3.20555330      16.02147613  T        1      -0.00110600       0.00343200       0.00522800      -0.00110600       0.00343200       0.00522800
Co       1.56759675       5.24335670      10.65512305  F        0       0.00000000       0.00000000       0.00000000       0.00000000       0.00000000       0.00000000
Co       7.77044269       2.36375761       9.50328380  F        0       0.00000000       0.00000000       0.00000000       0.00000000       0.00000000       0.00000000
Co       4.66901978       1.21191812      12.38288337  F        0       0.00000000       0.00000000       0.00000000       0.00000000       0.00000000       0.00000000
Co       1.48542587      13.77817257      13.99126381  T        1       0.00111200       0.00587000      -0.00159900       0.00111200       0.00587000      -0.00159900
Nb       3.11830827       3.22763729      11.51900321  F        0       0.00000000       0.00000000       0.00000000       0.00000000       0.00000000       0.00000000
Nb       6.23560025       2.07009135      14.40550466  T        1      -0.00205100      -0.00035900       0.00025300      -0.00205100      -0.00035900       0.00025300
Nb       6.21973129       4.37947702       8.63940364  F        0       0.00000000       0.00000000       0.00000000       0.00000000       0.00000000       0.00000000
Nb      -3.08453778      13.01827376      12.09492201  F        0       0.00000000       0.00000000       0.00000000       0.00000000       0.00000000       0.00000000
Nb       3.17024667       4.91918301      15.45256659  T        1      -0.00171500       0.00073100       0.00412200      -0.00171500       0.00073100       0.00412200
Nb       6.21973129       0.34803843      10.36716300  F        0       0.00000000       0.00000000       0.00000000       0.00000000       0.00000000       0.00000000
Sn       6.21973129       3.22763729      11.51900321  F        0       0.00000000       0.00000000       0.00000000       0.00000000       0.00000000       0.00000000
Sn       3.13167614       1.96742139      14.54901286  T        1      -0.00290400       0.00046600      -0.00537200      -0.00290400       0.00046600      -0.00537200
Sn       3.11830827       4.37947702       8.63940364  F        0       0.00000000       0.00000000       0.00000000       0.00000000       0.00000000       0.00000000
Sn       0.01688524      13.01827376      12.09492201  F        0       0.00000000       0.00000000       0.00000000       0.00000000       0.00000000       0.00000000
Sn       6.22393088       5.33112408      15.80538561  T        1      -0.00680900       0.01455900      -0.00748500      -0.00680900       0.01455900      -0.00748500
Sn       3.11830827       0.34803843      10.36716300  F        0       0.00000000       0.00000000       0.00000000       0.00000000       0.00000000       0.00000000
Co       1.98923931       7.02071309      15.00385219  T        1      -0.02778400      -0.01874400      -0.00424900      -0.02778400      -0.01874400      -0.00424900
Co       1.56759675       9.27479506       8.92736369  F        0       0.00000000       0.00000000       0.00000000       0.00000000       0.00000000       0.00000000
Co       4.66901978       8.12295580      11.80696231  F        0       0.00000000       0.00000000       0.00000000       0.00000000       0.00000000       0.00000000
Co       1.82699331       9.87568027      15.47204291  T        1      -0.00214900       0.01326600       0.00559500      -0.00214900       0.01326600       0.00559500
Co       1.56759675      12.15439367      10.07920295  F        0       0.00000000       0.00000000       0.00000000       0.00000000       0.00000000       0.00000000
Co      -1.53382615      11.00255442      12.95880157  F        0       0.00000000       0.00000000       0.00000000       0.00000000       0.00000000       0.00000000
Co       1.56759675      11.00255442      12.95880157  F        0       0.00000000       0.00000000       0.00000000       0.00000000       0.00000000       0.00000000
Co      -1.63249613      10.04646861      15.48016789  T        1       0.00458500       0.00012300       0.00023500       0.00458500       0.00012300       0.00023500
Co      -1.53382615      12.15439367      10.07920295  F        0       0.00000000       0.00000000       0.00000000       0.00000000       0.00000000       0.00000000
Co       4.66901978       9.27479506       8.92736369  F        0       0.00000000       0.00000000       0.00000000       0.00000000       0.00000000       0.00000000
Co       1.56759675       8.12295580      11.80696231  F        0       0.00000000       0.00000000       0.00000000       0.00000000       0.00000000       0.00000000
Co       4.53283048       7.30706628      15.34845710  T        1      -0.01527600       0.00439600      -0.02036300      -0.01527600       0.00439600      -0.02036300
Nb       0.01688524      10.13867426      10.94308311  F        0       0.00000000       0.00000000       0.00000000       0.00000000       0.00000000       0.00000000
Nb       3.16872384       9.00540229      13.71904642  T        1      -0.00536500      -0.00707400       0.01870700      -0.00536500      -0.00707400       0.01870700
Nb       3.11830827      11.29051447       8.06348449  F        0       0.00000000       0.00000000       0.00000000       0.00000000       0.00000000       0.00000000
Nb       0.01688524       6.10723639      12.67084152  F        0       0.00000000       0.00000000       0.00000000       0.00000000       0.00000000       0.00000000
Nb       0.01508506      11.79206012      14.88652834  T        1       0.00029400      -0.00416800      -0.00200600       0.00029400      -0.00416800      -0.00200600
Nb       3.11830827       7.25907564       9.79124385  F        0       0.00000000       0.00000000       0.00000000       0.00000000       0.00000000       0.00000000
Sn       3.11830827      10.13867426      10.94308311  F        0       0.00000000       0.00000000       0.00000000       0.00000000       0.00000000       0.00000000
Sn       0.05143590       8.84527504      13.94768319  T        1      -0.01253800       0.00144500      -0.01414400      -0.01253800       0.00144500      -0.01414400
Sn       0.01688524      11.29051447       8.06348449  F        0       0.00000000       0.00000000       0.00000000       0.00000000       0.00000000       0.00000000
Sn       3.11830827       6.10723639      12.67084152  F        0       0.00000000       0.00000000       0.00000000       0.00000000       0.00000000       0.00000000
Sn       3.13039401      12.11227787      15.19341588  T        1       0.00031100       0.00192800      -0.01247300       0.00031100       0.00192800      -0.01247300
Sn       0.01688524       7.25907564       9.79124385  F        0       0.00000000       0.00000000       0.00000000       0.00000000       0.00000000       0.00000000
Co       4.77217966      13.79869459      13.98368999  T        1       0.00144000       0.00329700       0.00188500       0.00144000       0.00329700       0.00188500
Co      10.87186547       2.36375761       9.50328380  F        0       0.00000000       0.00000000       0.00000000       0.00000000       0.00000000       0.00000000
Co       1.56759663       1.21191812      12.38288337  F        0       0.00000000       0.00000000       0.00000000       0.00000000       0.00000000       0.00000000
Co      11.04223810       3.22024417      16.02968959  T        1       0.00101000      -0.00260000       0.00236900       0.00101000      -0.00260000       0.00236900
Co      -1.53382663       5.24335670      10.65512305  F        0       0.00000000       0.00000000       0.00000000       0.00000000       0.00000000       0.00000000
Co       7.77044269       4.09151697      13.53472167  F        0       0.00000000       0.00000000       0.00000000       0.00000000       0.00000000       0.00000000
Co      -1.53382663       4.09151697      13.53472167  F        0       0.00000000       0.00000000       0.00000000       0.00000000       0.00000000       0.00000000
Co       7.63297553       3.19969014      16.04146577  T        1      -0.00412000       0.00581900      -0.00133900      -0.00412000       0.00581900      -0.00133900
Co       7.77044269       5.24335670      10.65512305  F        0       0.00000000       0.00000000       0.00000000       0.00000000       0.00000000       0.00000000
Co       1.56759663       2.36375761       9.50328380  F        0       0.00000000       0.00000000       0.00000000       0.00000000       0.00000000       0.00000000
Co      10.87186547       1.21191812      12.38288337  F        0       0.00000000       0.00000000       0.00000000       0.00000000       0.00000000       0.00000000
Co      -4.71640367      13.81286184      13.99457411  T        1       0.00322500      -0.00220400      -0.00397400       0.00322500      -0.00220400      -0.00397400
Nb       9.32115432       3.22763729      11.51900321  F        0       0.00000000       0.00000000       0.00000000       0.00000000       0.00000000       0.00000000
Nb       0.02463413       2.08154804      14.39639925  T        1       0.00260200       0.00173000       0.00199000       0.00260200       0.00173000       0.00199000
Nb       0.01688500       4.37947702       8.63940364  F        0       0.00000000       0.00000000       0.00000000       0.00000000       0.00000000       0.00000000
Nb       3.11830827      13.01827376      12.09492201  F        0       0.00000000       0.00000000       0.00000000       0.00000000       0.00000000       0.00000000
Nb       9.33120721       4.94550743      15.46666956  T        1      -0.00369900      -0.00011700       0.00012900      -0.00369900      -0.00011700       0.00012900
Nb       0.01688500       0.34803843      10.36716300  F        0       0.00000000       0.00000000       0.00000000       0.00000000       0.00000000       0.00000000