38
Lattice="9.53675365447998 0.0 -1.5336269487494403e-15 -5.780428117771203e-16 9.440155982971191 -0.9961618781089783 0.0 0.0 37.970279693603516" Properties=species:S:1:pos:R:3:move_mask:L:1:tags:I:1:DFT_forces:R:3:forces:R:3:magmoms:R:1 DFT_energy=-231.85191976 energy=-231.85191976 dipole="_JSON [[0.0, 0.0, 0.0]]" magmom=0.0 free_energy=-231.85572116 pbc="T T T"
Y        4.72860281       6.66837582      16.34004584  T        1       0.00180400       0.00569500      -0.00041700       0.00180400       0.00569500      -0.00041700       0.00000000
Y        4.65302527       1.86472213      12.10625103  F        0       0.00000000       0.00000000       0.00000000      -0.03585300      -0.24223000      -0.22486800       0.00000000
Y        8.13650602       4.93436766      10.12273338  F        0       0.00000000       0.00000000       0.00000000       0.14205400       0.08552500       0.47830500       0.00000000
Y        8.13650602       0.21428981      15.36710003  F        0       0.00000000       0.00000000       0.00000000       0.00005700       0.00672100       0.01708800       0.00000000
Y        9.42436601       3.31704595      16.78701055  T        1       0.00077100      -0.00425200      -0.01018900       0.00077100      -0.00425200      -0.01018900       0.00000000
Y        9.42140239       7.99718094      11.46599987  F        0       0.00000000       0.00000000       0.00000000       0.05538000      -0.13016700      -0.06583800       0.00000000
Y        3.36812967       4.92753506      13.44951656  F        0       0.00000000       0.00000000       0.00000000      -0.08774500       0.09451000      -0.29357800       0.00000000
Y        3.08775290       0.42498124      18.49509500  T        1       0.00819900      -0.00236000      -0.00208800       0.00819900      -0.00236000      -0.00208800       0.00000000
Y        3.34181178       3.32076491      16.66820029  T        1      -0.01034500       0.00143600      -0.01184300      -0.01034500       0.00143600      -0.01184300       0.00000000
Y        3.36812967       7.99718094      11.46599987  F        0       0.00000000       0.00000000       0.00000000      -0.03005000      -0.12894300      -0.01982700       0.00000000
Y        9.42140239       4.92753506      13.44951656  F        0       0.00000000       0.00000000       0.00000000       0.13560800      -0.07985200      -0.28664400       0.00000000
Y        9.11910306       0.02802326      18.60150827  T        1      -0.00506500       0.00882500      -0.00831300      -0.00506500       0.00882500      -0.00831300       0.00000000
Y        8.13127231       6.51909266      16.31524059  T        1      -0.00754800      -0.01123500      -0.00100400      -0.00754800      -0.01123500      -0.00100400       0.00000000
Y        8.13650602       1.86472213      12.10625103  F        0       0.00000000       0.00000000       0.00000000       0.03515000      -0.23678400      -0.29590900       0.00000000
Y        4.65302527       4.93436766      10.12273338  F        0       0.00000000       0.00000000       0.00000000      -0.15138000       0.10888700       0.50303900       0.00000000
Y        4.65302527       0.21428981      15.36710003  F        0       0.00000000       0.00000000       0.00000000       0.22219900      -0.01953800       0.01901600       0.00000000
Y        6.39476556       3.42480850      14.76233509  F        0       0.00000000       0.00000000       0.00000000      -0.07432500      -0.09099000      -0.25126300       0.00000000
Y        6.39476556       8.14488649       9.51796845  F        0       0.00000000       0.00000000       0.00000000       0.02474500       0.33844400       0.75938200       0.00000000
Y        6.26945406       2.12196836      18.13470820  T        1       0.01993900       0.01576500      -0.00229000       0.01993900       0.01576500      -0.00229000       0.00000000
Y        6.39476556       6.84930944      13.09819821  F        0       0.00000000       0.00000000       0.00000000       0.02250500      -0.08343000      -0.65928700       0.00000000
Y        1.81087092       6.29827557      18.09259690  T        1      -0.01169400       0.00257900       0.00118000      -0.01169400       0.00257900       0.00118000       0.00000000
Y        1.62638897       1.71701670      14.05428150  F        0       0.00000000       0.00000000       0.00000000      -0.10478300      -0.25283900      -0.50682700       0.00000000
Y        1.62638897       7.73267126      14.72225598  F        0       0.00000000       0.00000000       0.00000000       0.09680300      -0.01617200       0.43471700       0.00000000
Y        1.62638897       3.01259327      10.47405174  F        0       0.00000000       0.00000000       0.00000000      -0.01723400      -0.02958300       0.66664100       0.00000000
Co       6.55684925       8.91252816      16.43197524  T        1      -0.00178900       0.00549200       0.00859900      -0.00178900       0.00549200       0.00859900       0.00000000
Co       6.39476556       4.17824531      12.16934422  F        0       0.00000000       0.00000000       0.00000000       0.00250400       0.27240300      -0.35985800       0.00000000
Co       6.14587421       4.54926593      17.23297733  T        1      -0.00904600       0.01208300       0.01479000      -0.00904600       0.01208300       0.01479000       0.00000000
Co       6.39476556       9.34891605      12.07680920  F        0       0.00000000       0.00000000       0.00000000      -0.02730400      -0.04468100      -0.53829600       0.00000000
Co       1.28667895       0.88815108      16.64522825  T        1       0.01457900       0.00374900       0.00815400       0.01457900       0.00374900       0.00815400       0.00000000
Co       1.62638897       5.68365765      11.40290669  F        0       0.00000000       0.00000000       0.00000000       0.00183700      -0.23894000      -0.21992900       0.00000000
Co       1.62638897       5.23306417      15.74364498  F        0       0.00000000       0.00000000       0.00000000      -0.19382900       0.02943200       0.12037000       0.00000000
Co       1.62638897       0.51298648      11.49544075  F        0       0.00000000       0.00000000       0.00000000       0.00224800       0.59106000       0.69786700       0.00000000
C        3.94207657       3.81868982      19.19342152  T        2      -0.00103300       0.00720100      -0.00210400      -0.00103300       0.00720100      -0.00210400       0.00000000
C        4.76253488       4.72107101      18.48971786  T        2       0.00656900       0.01515900      -0.00977600       0.00656900       0.01515900      -0.00977600       0.00000000
H        4.96463165       6.67792974      19.13410684  T        2       0.00331300      -0.00169600       0.00943400       0.00331300      -0.00169600       0.00943400       0.00000000
H        3.31623237       4.08009652      20.05733630  T        2      -0.01087500       0.01060400       0.01561800      -0.01087500       0.01060400       0.01561800       0.00000000
O        4.10929443       2.45244025      18.95156800  T        2      -0.01003300       0.00706700       0.00388100      -0.01003300       0.00706700       0.00388100       0.00000000
O        4.20176718       6.12000020      18.85460810  T        2      -0.00633300      -0.00894300       0.01206600      -0.00633300      -0.00894300       0.01206600       0.00000000
38
Lattice="9.53675365447998 0.0 -1.5336269487494403e-15 -5.780428117771203e-16 9.440155982971191 -0.9961618781089783 0.0 0.0 37.970279693603516" Properties=species:S:1:pos:R:3:move_mask:L:1:tags:I:1:DFT_forces:R:3:forces:R:3 DFT_energy=-228.93423687 energy=-228.93423687 pbc="T T T"
Y        4.67507193       6.66878513      16.86419476  T        1       0.01809900       0.01588800       0.03698300       0.01809900       0.01588800       0.03698300
Y        4.65302527       1.86472213      12.10625103  F        0       0.00000000       0.00000000       0.00000000       0.00000000       0.00000000       0.00000000
Y        8.13650602       4.93436766      10.12273338  F        0       0.00000000       0.00000000       0.00000000       0.00000000       0.00000000       0.00000000
Y        8.13650602       0.21428981      15.36710003  F        0       0.00000000       0.00000000       0.00000000       0.00000000       0.00000000       0.00000000
Y        9.53984546       3.39648498      17.13260637  T        1       0.05108100       0.05562300       0.17818300       0.05108100       0.05562300       0.17818300
Y        9.42140239       7.99718094      11.46599987  F        0       0.00000000       0.00000000       0.00000000       0.00000000       0.00000000       0.00000000
Y        3.36812967       4.92753506      13.44951656  F        0       0.00000000       0.00000000       0.00000000       0.00000000       0.00000000       0.00000000
Y        2.90100805       0.35829202      18.45884040  T        1      -0.01209500       0.03252300      -0.01654700      -0.01209500       0.03252300      -0.01654700
Y        3.33984203       3.56407048      16.99058428  T        1      -0.04325300       0.04597900       0.11276400      -0.04325300       0.04597900       0.11276400
Y        3.36812967       7.99718094      11.46599987  F        0       0.00000000       0.00000000       0.00000000       0.00000000       0.00000000       0.00000000
Y        9.42140239       4.92753506      13.44951656  F        0       0.00000000       0.00000000       0.00000000       0.00000000       0.00000000       0.00000000
Y        8.89505383       0.02259065      18.60574760  T        1      -0.03390100       0.00216600       0.00728800      -0.03390100       0.00216600       0.00728800
Y        8.10121454       6.50058742      16.12225168  T        1       0.00793700      -0.02152300       0.00624000       0.00793700      -0.02152300       0.00624000
Y        8.13650602       1.86472213      12.10625103  F        0       0.00000000       0.00000000       0.00000000       0.00000000       0.00000000       0.00000000
Y        4.65302527       4.93436766      10.12273338  F        0       0.00000000       0.00000000       0.00000000       0.00000000       0.00000000       0.00000000
Y        4.65302527       0.21428981      15.36710003  F        0       0.00000000       0.00000000       0.00000000       0.00000000       0.00000000       0.00000000
Y        6.39476556       3.42480850      14.76233509  F        0       0.00000000       0.00000000       0.00000000       0.00000000       0.00000000       0.00000000
Y        6.39476556       8.14488649       9.51796845  F        0       0.00000000       0.00000000       0.00000000       0.00000000       0.00000000       0.00000000
Y        6.13941846       2.15508721      18.13851820  T        1       0.00911700      -0.00989200      -0.01282800       0.00911700      -0.00989200      -0.01282800
Y        6.39476556       6.84930944      13.09819821  F        0       0.00000000       0.00000000       0.00000000       0.00000000       0.00000000       0.00000000
Y        1.35400852       6.42351321      18.17913387  T        1       0.01855300       0.04038400      -0.01611400       0.01855300       0.04038400      -0.01611400
Y        1.62638897       1.71701670      14.05428150  F        0       0.00000000       0.00000000       0.00000000       0.00000000       0.00000000       0.00000000
Y        1.62638897       7.73267126      14.72225598  F        0       0.00000000       0.00000000       0.00000000       0.00000000       0.00000000       0.00000000
Y        1.62638897       3.01259327      10.47405174  F        0       0.00000000       0.00000000       0.00000000       0.00000000       0.00000000       0.00000000
Co       6.48809806       8.90248382      16.36990817  T        1      -0.00659200      -0.00498500      -0.01847500      -0.00659200      -0.00498500      -0.01847500
Co       6.39476556       4.17824531      12.16934422  F        0       0.00000000       0.00000000       0.00000000       0.00000000       0.00000000       0.00000000
Co       6.72352225       4.37522914      17.12522227  T        1       0.00594300       0.01840700      -0.01362800       0.00594300       0.01840700      -0.01362800
Co       6.39476556       9.34891605      12.07680920  F        0       0.00000000       0.00000000       0.00000000       0.00000000       0.00000000       0.00000000
Co       1.14343669       0.82622275      16.67079810  T        1      -0.02606600      -0.02670400       0.00797300      -0.02606600      -0.02670400       0.00797300
Co       1.62638897       5.68365765      11.40290669  F        0       0.00000000       0.00000000       0.00000000       0.00000000       0.00000000       0.00000000
Co       1.62638897       5.23306417      15.74364498  F        0       0.00000000       0.00000000       0.00000000       0.00000000       0.00000000       0.00000000
Co       1.62638897       0.51298648      11.49544075  F        0       0.00000000       0.00000000       0.00000000       0.00000000       0.00000000       0.00000000
C        2.38640738       5.04253666      19.65383207  T        2      -0.02977000      -0.14520400      -0.19325400      -0.02977000      -0.14520400      -0.19325400
C        5.17553209       4.61329511      18.16633559  T        2       0.02765100       0.01137500       0.04069200       0.02765100       0.01137500       0.04069200
H        6.25238262       5.95036884      19.20793846  T        2       0.02322500       0.02828500       0.02433300       0.02322500       0.02828500       0.02433300
H        2.99340405       4.59563866      20.47764585  T        2      -0.10578200      -0.16993800      -0.17151600      -0.10578200      -0.16993800      -0.17151600
O        1.51896456       4.19647462      19.05452774  T        2       0.00100300      -0.12620300      -0.31608600       0.00100300      -0.12620300      -0.31608600
O        5.29133626       5.81669318      19.04015740  T        2       0.02435800       0.02040500       0.01941500       0.02435800       0.02040500       0.01941500
38
Lattice="9.53675365447998 0.0 -1.5336269487494403e-15 -5.780428117771203e-16 9.440155982971191 -0.9961618781089783 0.0 0.0 37.970279693603516" Properties=species:S:1:pos:R:3:move_mask:L:1:tags:I:1:DFT_forces:R:3:forces:R:3 DFT_energy=-228.71066849 energy=-228.71066849 pbc="T T T"
Y        4.66018207       6.64418355      16.84967362  T        1       0.00462400       0.01451600       0.00862700       0.00462400       0.01451600       0.00862700
Y        4.65302527       1.86472213      12.10625103  F        0       0.00000000       0.00000000       0.00000000       0.00000000       0.00000000       0.00000000
Y        8.13650602       4.93436766      10.12273338  F        0       0.00000000       0.00000000       0.00000000       0.00000000       0.00000000       0.00000000
Y        8.13650602       0.21428981      15.36710003  F        0       0.00000000       0.00000000       0.00000000       0.00000000       0.00000000       0.00000000
Y        9.47074646       3.34599161      16.89870306  T        1       0.00562900       0.01097800       0.03446400       0.00562900       0.01097800       0.03446400
Y        9.42140239       7.99718094      11.46599987  F        0       0.00000000       0.00000000       0.00000000       0.00000000       0.00000000       0.00000000
Y        3.36812967       4.92753506      13.44951656  F        0       0.00000000       0.00000000       0.00000000       0.00000000       0.00000000       0.00000000
Y        2.92983649       0.33349195      18.46681418  T        1      -0.00324400       0.01470700       0.00017100      -0.00324400       0.01470700       0.00017100
Y        3.39125861       3.49966911      16.86012908  T        1       0.00383800       0.00482100       0.01371900       0.00383800       0.00482100       0.01371900
Y        3.36812967       7.99718094      11.46599987  F        0       0.00000000       0.00000000       0.00000000       0.00000000       0.00000000       0.00000000
Y        9.42140239       4.92753506      13.44951656  F        0       0.00000000       0.00000000       0.00000000       0.00000000       0.00000000       0.00000000
Y        8.92812447       9.47448538      17.60388458  T        1      -0.00099000      -0.00439200       0.00641200      -0.00099000      -0.00439200       0.00641200
Y        8.08559866       6.52373656      16.11824104  T        1      -0.00029000      -0.00103400      -0.00187600      -0.00029000      -0.00103400      -0.00187600
Y        8.13650602       1.86472213      12.10625103  F        0       0.00000000       0.00000000       0.00000000       0.00000000       0.00000000       0.00000000
Y        4.65302527       4.93436766      10.12273338  F        0       0.00000000       0.00000000       0.00000000       0.00000000       0.00000000       0.00000000
Y        4.65302527       0.21428981      15.36710003  F        0       0.00000000       0.00000000       0.00000000       0.00000000       0.00000000       0.00000000
Y        6.39476556       3.42480850      14.76233509  F        0       0.00000000       0.00000000       0.00000000       0.00000000       0.00000000       0.00000000
Y        6.39476556       8.14488649       9.51796845  F        0       0.00000000       0.00000000       0.00000000       0.00000000       0.00000000       0.00000000
Y        6.15002534       2.15050261      18.15411983  T        1      -0.00895500      -0.00433900      -0.00116700      -0.00895500      -0.00433900      -0.00116700
Y        6.39476556       6.84930944      13.09819821  F        0       0.00000000       0.00000000       0.00000000       0.00000000       0.00000000       0.00000000
Y        1.31599631       6.36501913      18.19499727  T        1       0.01531400       0.02229200      -0.00997600       0.01531400       0.02229200      -0.00997600
Y        1.62638897       1.71701670      14.05428150  F        0       0.00000000       0.00000000       0.00000000       0.00000000       0.00000000       0.00000000
Y        1.62638897       7.73267126      14.72225598  F        0       0.00000000       0.00000000       0.00000000       0.00000000       0.00000000       0.00000000
Y        1.62638897       3.01259327      10.47405174  F        0       0.00000000       0.00000000       0.00000000       0.00000000       0.00000000       0.00000000
Co       6.48617476       8.91641389      16.39265122  T        1      -0.00250900      -0.00141200      -0.00218000      -0.00250900      -0.00141200      -0.00218000
Co       6.39476556       4.17824531      12.16934422  F        0       0.00000000       0.00000000       0.00000000       0.00000000       0.00000000       0.00000000
Co       6.70434723       4.36990216      17.12026627  T        1      -0.00367000       0.01289200      -0.00014700      -0.00367000       0.01289200      -0.00014700
Co       6.39476556       9.34891605      12.07680920  F        0       0.00000000       0.00000000       0.00000000       0.00000000       0.00000000       0.00000000
Co       1.18801901       0.83644740      16.66441915  T        1      -0.00871600      -0.00130000      -0.00069300      -0.00871600      -0.00130000      -0.00069300
Co       1.62638897       5.68365765      11.40290669  F        0       0.00000000       0.00000000       0.00000000       0.00000000       0.00000000       0.00000000
Co       1.62638897       5.23306417      15.74364498  F        0       0.00000000       0.00000000       0.00000000       0.00000000       0.00000000       0.00000000
Co       1.62638897       0.51298648      11.49544075  F        0       0.00000000       0.00000000       0.00000000       0.00000000       0.00000000       0.00000000
C        2.43188615       5.18585421      19.84703854  T        2      -0.02764600      -0.06026600      -0.02955900      -0.02764600      -0.06026600      -0.02955900
C        5.12607223       4.59320352      18.14500805  T        2       0.00595300       0.01418200       0.01448300       0.00595300       0.01418200       0.01448300
H        6.22607677       5.91759538      19.20136763  T        2      -0.00659500       0.00525000       0.00082500      -0.00659500       0.00525000       0.00082500
H        3.08962588       4.77911816      20.65774673  T        2      -0.03116700      -0.06593700      -0.03963000      -0.03116700      -0.06593700      -0.03963000
O        1.52456996       4.36207746      19.41494797  T        2       0.01484200      -0.06740800      -0.11329300       0.01484200      -0.06740800      -0.11329300
O        5.26381863       5.79395691      19.02718690  T        2       0.00709000       0.00068900      -0.00507000       0.00709000       0.00068900      -0.00507000
38
Lattice="9.53675365447998 0.0 -1.5336269487494403e-15 -5.780428117771203e-16 9.440155982971191 -0.9961618781089783 0.0 0.0 37.970279693603516" Properties=species:S:1:pos:R:3:move_mask:L:1:tags:I:1:DFT_forces:R:3:forces:R:3 DFT_energy=-228.67375166 energy=-228.67375166 pbc="T T T"
Y        4.63761363       6.60613267      16.82346897  T        1       0.00412600       0.00103600      -0.00303300       0.00412600       0.00103600      -0.00303300
Y        4.65302527       1.86472213      12.10625103  F        0       0.00000000       0.00000000       0.00000000       0.00000000       0.00000000       0.00000000
Y        8.13650602       4.93436766      10.12273338  F        0       0.00000000       0.00000000       0.00000000       0.00000000       0.00000000       0.00000000
Y        8.13650602       0.21428981      15.36710003  F        0       0.00000000       0.00000000       0.00000000       0.00000000       0.00000000       0.00000000
Y        9.44006675       3.31254293      16.77409497  T        1       0.00818200      -0.00573600      -0.00324800       0.00818200      -0.00573600      -0.00324800
Y        9.42140239       7.99718094      11.46599987  F        0       0.00000000       0.00000000       0.00000000       0.00000000       0.00000000       0.00000000
Y        3.36812967       4.92753506      13.44951656  F        0       0.00000000       0.00000000       0.00000000       0.00000000       0.00000000       0.00000000
Y        2.95263575       0.30158306      18.46679804  T        1      -0.00036000       0.00170800      -0.00148500      -0.00036000       0.00170800      -0.00148500
Y        3.39493908       3.45347405      16.80030737  T        1       0.00320900      -0.00063400      -0.00505300       0.00320900      -0.00063400      -0.00505300
Y        3.36812967       7.99718094      11.46599987  F        0       0.00000000       0.00000000       0.00000000       0.00000000       0.00000000       0.00000000
Y        9.42140239       4.92753506      13.44951656  F        0       0.00000000       0.00000000       0.00000000       0.00000000       0.00000000       0.00000000
Y        8.95916199       9.47871035      17.59772771  T        1       0.00235100      -0.00189000      -0.00222800       0.00235100      -0.00189000      -0.00222800
Y        8.07459924       6.53195767      16.11498905  T        1       0.00644500       0.00539200       0.00284300       0.00644500       0.00539200       0.00284300
Y        8.13650602       1.86472213      12.10625103  F        0       0.00000000       0.00000000       0.00000000       0.00000000       0.00000000       0.00000000
Y        4.65302527       4.93436766      10.12273338  F        0       0.00000000       0.00000000       0.00000000       0.00000000       0.00000000       0.00000000
Y        4.65302527       0.21428981      15.36710003  F        0       0.00000000       0.00000000       0.00000000       0.00000000       0.00000000       0.00000000
Y        6.39476556       3.42480850      14.76233509  F        0       0.00000000       0.00000000       0.00000000       0.00000000       0.00000000       0.00000000
Y        6.39476556       8.14488649       9.51796845  F        0       0.00000000       0.00000000       0.00000000       0.00000000       0.00000000       0.00000000
Y        6.15398715       2.14751428      18.16322653  T        1      -0.00164900      -0.00027700       0.00046300      -0.00164900      -0.00027700       0.00046300
Y        6.39476556       6.84930944      13.09819821  F        0       0.00000000       0.00000000       0.00000000       0.00000000       0.00000000       0.00000000
Y        1.28211719       6.31595185      18.23594079  T        1      -0.00652300       0.00137500      -0.00862900      -0.00652300       0.00137500      -0.00862900
Y        1.62638897       1.71701670      14.05428150  F        0       0.00000000       0.00000000       0.00000000       0.00000000       0.00000000       0.00000000
Y        1.62638897       7.73267126      14.72225598  F        0       0.00000000       0.00000000       0.00000000       0.00000000       0.00000000       0.00000000
Y        1.62638897       3.01259327      10.47405174  F        0       0.00000000       0.00000000       0.00000000       0.00000000       0.00000000       0.00000000
Co       6.48570517       8.92129543      16.40559248  T        1       0.00173800       0.00024200       0.00106500       0.00173800       0.00024200       0.00106500
Co       6.39476556       4.17824531      12.16934422  F        0       0.00000000       0.00000000       0.00000000       0.00000000       0.00000000       0.00000000
Co       6.71805743       4.36456686      17.12012059  T        1      -0.00275600       0.00168900      -0.00212400      -0.00275600       0.00168900      -0.00212400
Co       6.39476556       9.34891605      12.07680920  F        0       0.00000000       0.00000000       0.00000000       0.00000000       0.00000000       0.00000000
Co       1.22278025       0.84753661      16.66145569  T        1      -0.00095000       0.00253900       0.00389100      -0.00095000       0.00253900       0.00389100
Co       1.62638897       5.68365765      11.40290669  F        0       0.00000000       0.00000000       0.00000000       0.00000000       0.00000000       0.00000000
Co       1.62638897       5.23306417      15.74364498  F        0       0.00000000       0.00000000       0.00000000       0.00000000       0.00000000       0.00000000
Co       1.62638897       0.51298648      11.49544075  F        0       0.00000000       0.00000000       0.00000000       0.00000000       0.00000000       0.00000000
C        2.44643457       5.36466061      20.02225183  T        2      -0.00480200      -0.00382800       0.00984500      -0.00480200      -0.00382800       0.00984500
C        5.10925367       4.55951784      18.11484599  T        2       0.00314600       0.00218900      -0.00149400       0.00314600       0.00218900      -0.00149400
H        6.18728033       5.89942688      19.18239709  T        2      -0.00955000       0.00005300       0.00393500      -0.00955000       0.00005300       0.00393500
H        3.13260843       5.01674200      20.83947634  T        2      -0.00386000       0.00520200       0.01722600      -0.00386000       0.00520200       0.01722600
O        1.45989778       4.58052808      19.78409553  T        2      -0.00750900      -0.01348000      -0.00315100      -0.00750900      -0.01348000      -0.00315100
O        5.22906793       5.76627922      18.99439003  T        2       0.00119700       0.00656000      -0.00407400       0.00119700       0.00656000      -0.00407400
38
Lattice="9.53675365447998 0.0 -1.5336269487494403e-15 -5.780428117771203e-16 9.440155982971191 -0.9961618781089783 0.0 0.0 37.970279693603516" Properties=species:S:1:pos:R:3:move_mask:L:1:tags:I:1:DFT_forces:R:3:forces:R:3 DFT_energy=-228.70120655 energy=-228.70120655 pbc="T T T"
Y        4.63278620       6.58836376      16.80660960  T        1      -0.00156700      -0.00329100      -0.00364600      -0.00156700      -0.00329100      -0.00364600
Y        4.65302527       1.86472213      12.10625103  F        0       0.00000000       0.00000000       0.00000000       0.00000000       0.00000000       0.00000000
Y        8.13650602       4.93436766      10.12273338  F        0       0.00000000       0.00000000       0.00000000       0.00000000       0.00000000       0.00000000
Y        8.13650602       0.21428981      15.36710003  F        0       0.00000000       0.00000000       0.00000000       0.00000000       0.00000000       0.00000000
Y        9.43784515       3.29922019      16.73751535  T        1      -0.00310500      -0.00904600      -0.00094300      -0.00310500      -0.00904600      -0.00094300
Y        9.42140239       7.99718094      11.46599987  F        0       0.00000000       0.00000000       0.00000000       0.00000000       0.00000000       0.00000000
Y        3.36812967       4.92753506      13.44951656  F        0       0.00000000       0.00000000       0.00000000       0.00000000       0.00000000       0.00000000
Y        2.95709835       0.28560785      18.46721029  T        1       0.00112200      -0.00061500       0.00213300       0.00112200      -0.00061500       0.00213300
Y        3.39087570       3.43261351      16.77538404  T        1       0.00894700      -0.00408200      -0.00077700       0.00894700      -0.00408200      -0.00077700
Y        3.36812967       7.99718094      11.46599987  F        0       0.00000000       0.00000000       0.00000000       0.00000000       0.00000000       0.00000000
Y        9.42140239       4.92753506      13.44951656  F        0       0.00000000       0.00000000       0.00000000       0.00000000       0.00000000       0.00000000
Y        8.97231433       9.47135527      17.59319756  T        1       0.00588500       0.00165000       0.00236600       0.00588500       0.00165000       0.00236600
Y        8.07528604       6.52737644      16.11852062  T        1       0.00364100      -0.00014000       0.00083300       0.00364100      -0.00014000       0.00083300