74
Lattice="11.861236572265625 0.0 7.26291312298956e-16 1.913362724552739e-15 11.898115158081055 7.285493962572176e-16 0.0 0.0 31.72830581665039" Properties=species:S:1:pos:R:3:move_mask:L:1:tags:I:1:DFT_forces:R:3:forces:R:3:magmoms:R:1 DFT_energy=-362.44899596 energy=-362.44899596 dipole="_JSON [[0.0, 0.0, 0.0]]" magmom=0.0 free_energy=-362.48448946 pbc="T T T"
Ga       3.17441195       3.90707756      13.43420338  T        1       0.02315200       0.01861100       0.00915100       0.02315200       0.01861100       0.00915100       0.00000000
Ga       3.38979995       3.90239167       9.50870419  F        0       0.00000000       0.00000000       0.00000000       0.22556400       0.04718700      -0.48052700       0.00000000
Pt       1.41292715       3.90239167       7.52568531  F        0       0.00000000       0.00000000       0.00000000      -0.04591300      -0.03979600       0.59789200       0.00000000
Pt       1.35569372       3.89089772      11.42495049  T        1       0.00009100       0.01265800       0.00602800       0.00009100       0.01265800       0.00602800       0.00000000
Pt       5.39400348       1.39204984      13.49982645  T        1      -0.00547100       0.04041900      -0.00440500      -0.00547100       0.04041900      -0.00440500       0.00000000
Pt       1.41292715       1.91937256       9.50870419  F        0       0.00000000       0.00000000       0.00000000       0.08873100      -0.07675500      -0.45322400       0.00000000
Pt       3.38979995       1.91937256       7.52568531  F        0       0.00000000       0.00000000       0.00000000       0.09233100       0.01953000       0.55912600       0.00000000
Pt       3.46436689       2.03788312      11.47174276  T        1      -0.00434300      -0.00764100      -0.00887700      -0.00434300      -0.00764100      -0.00887700       0.00000000
Ga       3.19265446       7.86651081      13.42294559  T        1      -0.00361600      -0.00303900       0.01782400      -0.00361600      -0.00303900       0.01782400       0.00000000
Ga       3.38979995       7.86843014       9.50870419  F        0       0.00000000       0.00000000       0.00000000       0.22453700      -0.09392600      -0.48347900       0.00000000
Pt       1.41292715       7.86843014       7.52568531  F        0       0.00000000       0.00000000       0.00000000      -0.04487400       0.04126900       0.59413400       0.00000000
Pt       1.36572892       7.87881214      11.42071834  T        1       0.01509000      -0.01591900       0.00728300       0.01509000      -0.01591900       0.00728300       0.00000000
Pt       6.31391828       5.90694837      14.01765245  T        1      -0.00728300      -0.01564400      -0.01695800      -0.00728300      -0.01564400      -0.01695800       0.00000000
Pt       1.41292715       5.88541079       9.50870419  F        0       0.00000000       0.00000000       0.00000000       0.07614200      -0.00594900      -0.52828600       0.00000000
Pt       3.38979995       5.88541079       7.52568531  F        0       0.00000000       0.00000000       0.00000000       0.06962000       0.00508800       0.60316300       0.00000000
Pt       3.47679920       5.86865727      11.44798591  T        1      -0.01388100       0.00884200       0.03622200      -0.01388100       0.00884200       0.03622200       0.00000000
Ga       3.24517729      11.82532973      13.62987634  T        1       0.00078600       0.00539600       0.00781000       0.00078600       0.00539600       0.00781000       0.00000000
Ga       3.38979995      11.83446884       9.50870419  F        0       0.00000000       0.00000000       0.00000000      -0.08026000      -0.00426500      -0.72481900       0.00000000
Pt       1.41292715      11.83446884       7.52568531  F        0       0.00000000       0.00000000       0.00000000      -0.02042300       0.00327800       0.62571600       0.00000000
Pt       1.54200632      11.83451332      11.43345558  T        1      -0.01808200       0.00304900       0.00498100      -0.01808200       0.00304900       0.00498100       0.00000000
Pt       5.39995455      10.34232933      13.49089756  T        1       0.00095700      -0.00222500       0.00236000       0.00095700      -0.00222500       0.00236000       0.00000000
Pt       1.41292715       9.85144901       9.50870419  F        0       0.00000000       0.00000000       0.00000000       0.09456700       0.10075100      -0.51223500       0.00000000
Pt       3.38979995       9.85144901       7.52568531  F        0       0.00000000       0.00000000       0.00000000       0.08754700      -0.01921400       0.56350700       0.00000000
Pt       3.46108936       9.74206138      11.46596918  T        1      -0.01313500      -0.00328400      -0.00063300      -0.01313500      -0.00328400      -0.00063300       0.00000000
Ga       7.56820944       3.72873210      13.55602184  T        1      -0.01119900      -0.01930100      -0.02163900      -0.01119900      -0.01930100      -0.02163900       0.00000000
Ga       7.34354544       3.90239167       9.50870419  F        0       0.00000000       0.00000000       0.00000000      -0.20862200       0.05581400      -0.46688400       0.00000000
Pt       5.36667275       3.90239167       7.52568531  F        0       0.00000000       0.00000000       0.00000000      -0.00416800      -0.16466600       0.58699300       0.00000000
Pt       5.36589425       3.93634250      12.14149976  T        1      -0.00997600      -0.04511300      -0.01856000      -0.00997600      -0.04511300      -0.01856000       0.00000000
Pt       9.27143697       1.83422306      13.43819414  T        1      -0.02474600       0.02660300      -0.00924300      -0.02474600       0.02660300      -0.00924300       0.00000000
Pt       5.36667275       1.91937256       9.50870419  F        0       0.00000000       0.00000000       0.00000000       0.00702000       0.74930200      -0.79886300       0.00000000
Pt       7.34354544       1.91937256       7.52568531  F        0       0.00000000       0.00000000       0.00000000      -0.07246000       0.00578600       0.54158600       0.00000000
Pt       7.27977454       2.01965562      11.45528582  T        1       0.02108100       0.01494400       0.01558700       0.02108100       0.01494400       0.01558700       0.00000000
Ga       7.54031198       8.07548886      13.53661700  T        1       0.01465800       0.01870700      -0.00251800       0.01465800       0.01870700      -0.00251800       0.00000000
Ga       7.34354544       7.86843014       9.50870419  F        0       0.00000000       0.00000000       0.00000000      -0.19661100      -0.10266900      -0.47554700       0.00000000
Pt       5.36667275       7.86843014       7.52568531  F        0       0.00000000       0.00000000       0.00000000      -0.00494700       0.17990100       0.56515900       0.00000000
Pt       5.35730489       7.82185195      12.07743233  T        1       0.00597600       0.02959100       0.00591000       0.00597600       0.02959100       0.00591000       0.00000000
Pt       9.34074067       5.86756970      13.40872968  T        1      -0.00594000      -0.00126100      -0.00348000      -0.00594000      -0.00126100      -0.00348000       0.00000000
Pt       5.36667275       5.88541079       9.50870419  F        0       0.00000000       0.00000000       0.00000000       0.06795900       0.01960000       0.22424700       0.00000000
Pt       7.34354544       5.88541079       7.52568531  F        0       0.00000000       0.00000000       0.00000000      -0.07684600       0.00362600       0.60795900       0.00000000
Pt       7.28815441       5.87429800      11.45120695  T        1       0.01740300       0.00555400      -0.00163000       0.01740300       0.00555400      -0.00163000       0.00000000
Ga       7.50797629      11.82726415      13.69580050  T        1      -0.01187600      -0.00124600       0.00692800      -0.01187600      -0.00124600       0.00692800       0.00000000
Ga       7.34354544      11.83446884       9.50870419  F        0       0.00000000       0.00000000       0.00000000       0.07823400      -0.00198300      -0.71063500       0.00000000
Pt       5.36667275      11.83446884       7.52568531  F        0       0.00000000       0.00000000       0.00000000      -0.00456700      -0.00169100       0.28338400       0.00000000
Pt       5.36596866      11.83294182      11.26243589  T        1      -0.01631800       0.01234200      -0.01205500      -0.01631800       0.01234200      -0.01205500       0.00000000
Pt       9.28841960       9.93743612      13.43522719  T        1      -0.02366400      -0.02699000       0.00138100      -0.02366400      -0.02699000       0.00138100       0.00000000
Pt       5.36667275       9.85144901       9.50870419  F        0       0.00000000       0.00000000       0.00000000       0.00668300      -0.74914600      -0.84258300       0.00000000
Pt       7.34354544       9.85144901       7.52568531  F        0       0.00000000       0.00000000       0.00000000      -0.07122300      -0.00271800       0.54650600       0.00000000
Pt       7.28441293       9.75586362      11.44923448  T        1       0.01115500       0.00750200      -0.00903900       0.01115500       0.00750200      -0.00903900       0.00000000
Ga      11.28251442       3.90574886      13.36963680  T        1      -0.00003900       0.00294100      -0.00032800      -0.00003900       0.00294100      -0.00032800       0.00000000
Ga      11.29729128       3.90239167       9.50870419  F        0       0.00000000       0.00000000       0.00000000      -0.04788700      -0.04418800      -0.73867300       0.00000000
Pt       9.32041836       3.90239167       7.52568531  F        0       0.00000000       0.00000000       0.00000000       0.05038700      -0.02386700       0.59597300       0.00000000
Pt       9.35918604       3.88333991      11.44053997  T        1      -0.03007100       0.00343200       0.01160900      -0.03007100       0.00343200       0.01160900       0.00000000
Pt       1.46559308       1.88829431      13.43291008  T        1       0.00407300       0.00237800      -0.01856400       0.00407300       0.00237800      -0.01856400       0.00000000
Pt       9.32041836       1.91937256       9.50870419  F        0       0.00000000       0.00000000       0.00000000      -0.04703500       0.07835000      -0.54171800       0.00000000
Pt      11.29729128       1.91937256       7.52568531  F        0       0.00000000       0.00000000       0.00000000      -0.00631800       0.01733300       0.53799800       0.00000000
Pt      11.29930033       1.83861505      11.50201380  T        1       0.01598100       0.00162300      -0.00301000       0.01598100       0.00162300      -0.00301000       0.00000000
Ga      11.27873845       7.86886505      13.36613837  T        1       0.00268100      -0.00650400       0.00694600       0.00268100      -0.00650400       0.00694600       0.00000000
Ga      11.29729128       7.86843014       9.50870419  F        0       0.00000000       0.00000000       0.00000000      -0.06788000       0.00824100      -0.72891100       0.00000000
Pt       9.32041836       7.86843014       7.52568531  F        0       0.00000000       0.00000000       0.00000000       0.05156200       0.02668400       0.59921800       0.00000000
Pt       9.34181330       7.87872451      11.45479695  T        1      -0.00327100       0.00644100       0.00437800      -0.00327100       0.00644100       0.00437800       0.00000000
Pt       1.47507711       5.89197173      13.39397247  T        1       0.00498700      -0.00420600      -0.01340300       0.00498700      -0.00420600      -0.01340300       0.00000000
Pt       9.32041836       5.88541079       9.50870419  F        0       0.00000000       0.00000000       0.00000000      -0.15202900       0.01583600      -0.63337100       0.00000000
Pt      11.29729128       5.88541079       7.52568531  F        0       0.00000000       0.00000000       0.00000000      -0.00387800       0.00436700       0.49254300       0.00000000
Pt      11.29385869       5.89227753      11.46463692  T        1       0.01504800      -0.00590700       0.00167100       0.01504800      -0.00590700       0.00167100       0.00000000
Ga      11.32914756      11.82765938      13.36820400  T        1       0.01729800       0.00145000       0.00960200       0.01729800       0.00145000       0.00960200       0.00000000
Ga      11.29729128      11.83446884       9.50870419  F        0       0.00000000       0.00000000       0.00000000       0.02932400      -0.00492100      -0.62234800       0.00000000
Pt       9.32041836      11.83446884       7.52568531  F        0       0.00000000       0.00000000       0.00000000       0.01512900       0.00842000       0.61583100       0.00000000
Pt       9.23219317      11.83523511      11.40222017  T        1      -0.01278900      -0.00414700       0.00984600      -0.01278900      -0.00414700       0.00984600       0.00000000
Pt       1.46265177       9.87690503      13.42838068  T        1      -0.00433700       0.00623800      -0.01665300      -0.00433700       0.00623800      -0.01665300       0.00000000
Pt       9.32041836       9.85144901       9.50870419  F        0       0.00000000       0.00000000       0.00000000      -0.04268800      -0.10644400      -0.53873000       0.00000000
Pt      11.29729128       9.85144901       7.52568531  F        0       0.00000000       0.00000000       0.00000000      -0.00538800      -0.01823300       0.54072700       0.00000000
Pt      11.30055198       9.92009282      11.48759388  T        1      -0.00987600       0.01796000       0.01010200      -0.00987600       0.01796000       0.01010200       0.00000000
C        5.92750927       5.93783635      15.85060314  T        2       0.00742300      -0.00368900      -0.01229400       0.00742300      -0.00368900      -0.01229400       0.00000000
O        5.71363396       5.96172542      16.99968139  T        2      -0.00925000      -0.01049500      -0.00315700      -0.00925000      -0.01049500      -0.00315700       0.00000000
74
Lattice="11.861236572265625 0.0 7.26291312298956e-16 1.913362724552739e-15 11.898115158081055 7.285493962572176e-16 0.0 0.0 31.72830581665039" Properties=species:S:1:pos:R:3:move_mask:L:1:tags:I:1:DFT_forces:R:3:forces:R:3 DFT_energy=-362.23493629 energy=-362.23493629 pbc="T T T"
Ga       3.31956054       3.70061222      13.58286652  T        1       0.00932600       0.01110400      -0.00995800       0.00932600       0.01110400      -0.00995800
Ga       3.38979995       3.90239167       9.50870419  F        0       0.00000000       0.00000000       0.00000000       0.00000000       0.00000000       0.00000000
Pt       1.41292715       3.90239167       7.52568531  F        0       0.00000000       0.00000000       0.00000000       0.00000000       0.00000000       0.00000000
Pt       1.53001432       3.97368305      11.45950582  T        1      -0.00019400      -0.00261100       0.00226200      -0.00019400      -0.00261100       0.00226200
Pt       5.32092145       1.92322040      13.41138140  T        1       0.00140500      -0.00812000      -0.00234100       0.00140500      -0.00812000      -0.00234100
Pt       1.41292715       1.91937256       9.50870419  F        0       0.00000000       0.00000000       0.00000000       0.00000000       0.00000000       0.00000000
Pt       3.38979995       1.91937256       7.52568531  F        0       0.00000000       0.00000000       0.00000000       0.00000000       0.00000000       0.00000000
Pt       3.37594587       1.88204673      11.42451193  T        1      -0.00030800       0.00366100       0.00067800      -0.00030800       0.00366100       0.00067800
Ga       3.39593560       8.09257369      13.45320947  T        1      -0.00348800      -0.00420300       0.00186200      -0.00348800      -0.00420300       0.00186200
Ga       3.38979995       7.86843014       9.50870419  F        0       0.00000000       0.00000000       0.00000000       0.00000000       0.00000000       0.00000000
Pt       1.41292715       7.86843014       7.52568531  F        0       0.00000000       0.00000000       0.00000000       0.00000000       0.00000000       0.00000000
Pt       1.53203789       7.79557319      11.47457550  T        1      -0.00123000       0.00307200      -0.00513300      -0.00123000       0.00307200      -0.00513300
Pt       5.54892650       5.07099844      13.93723408  T        1      -0.03393500       0.00102000       0.02717000      -0.03393500       0.00102000       0.02717000
Pt       1.41292715       5.88541079       9.50870419  F        0       0.00000000       0.00000000       0.00000000       0.00000000       0.00000000       0.00000000
Pt       3.38979995       5.88541079       7.52568531  F        0       0.00000000       0.00000000       0.00000000       0.00000000       0.00000000       0.00000000
Pt       3.41781265       5.88564531      12.19105889  T        1      -0.00139100       0.00159100      -0.00848400      -0.00139100       0.00159100      -0.00848400
Ga       3.39576026      11.84913111      13.36835530  T        1       0.00170500       0.00469100       0.00502200       0.00170500       0.00469100       0.00502200
Ga       3.38979995      11.83446884       9.50870419  F        0       0.00000000       0.00000000       0.00000000       0.00000000       0.00000000       0.00000000
Pt       1.41292715      11.83446884       7.52568531  F        0       0.00000000       0.00000000       0.00000000       0.00000000       0.00000000       0.00000000
Pt       1.34358507      11.84167153      11.52462980  T        1       0.00283000       0.00024900       0.00589300       0.00283000       0.00024900       0.00589300
Pt       5.38583072       9.77858997      13.39374366  T        1      -0.00582000       0.00557500      -0.00044100      -0.00582000       0.00557500      -0.00044100
Pt       1.41292715       9.85144901       9.50870419  F        0       0.00000000       0.00000000       0.00000000       0.00000000       0.00000000       0.00000000
Pt       3.38979995       9.85144901       7.52568531  F        0       0.00000000       0.00000000       0.00000000       0.00000000       0.00000000       0.00000000
Pt       3.38160828       9.90870584      11.42645968  T        1       0.00017700      -0.00226700      -0.00085200       0.00017700      -0.00226700      -0.00085200
Ga       7.56088395       3.66918603      13.45618144  T        1       0.00235900       0.03720000      -0.00043100       0.00235900       0.03720000      -0.00043100
Ga       7.34354544       3.90239167       9.50870419  F        0       0.00000000       0.00000000       0.00000000       0.00000000       0.00000000       0.00000000
Pt       5.36667275       3.90239167       7.52568531  F        0       0.00000000       0.00000000       0.00000000       0.00000000       0.00000000       0.00000000
Pt       5.33764216       3.95477014      11.43844312  T        1       0.00372400      -0.00060600       0.01334300       0.00372400      -0.00060600       0.01334300
Pt       9.42295895       1.90990578      13.44020799  T        1      -0.00171400       0.01261600      -0.00119800      -0.00171400       0.01261600      -0.00119800
Pt       5.36667275       1.91937256       9.50870419  F        0       0.00000000       0.00000000       0.00000000       0.00000000       0.00000000       0.00000000
Pt       7.34354544       1.91937256       7.52568531  F        0       0.00000000       0.00000000       0.00000000       0.00000000       0.00000000       0.00000000
Pt       7.35393237       1.89245641      11.46477981  T        1      -0.00183400       0.00570600      -0.00055200      -0.00183400       0.00570600      -0.00055200
Ga       7.35283293       8.01893248      13.35336552  T        1       0.00216900       0.00697000       0.00953100       0.00216900       0.00697000       0.00953100
Ga       7.34354544       7.86843014       9.50870419  F        0       0.00000000       0.00000000       0.00000000       0.00000000       0.00000000       0.00000000
Pt       5.36667275       7.86843014       7.52568531  F        0       0.00000000       0.00000000       0.00000000       0.00000000       0.00000000       0.00000000
Pt       5.32018056       7.78138842      11.45015747  T        1       0.01132000       0.00293800       0.00245500       0.01132000       0.00293800       0.00245500
Pt       9.78408582       5.89368018      13.46175311  T        1      -0.00166700      -0.01245500       0.00764500      -0.00166700      -0.01245500       0.00764500
Pt       5.36667275       5.88541079       9.50870419  F        0       0.00000000       0.00000000       0.00000000       0.00000000       0.00000000       0.00000000
Pt       7.34354544       5.88541079       7.52568531  F        0       0.00000000       0.00000000       0.00000000       0.00000000       0.00000000       0.00000000
Pt       7.33302421       5.90408979      11.86551716  T        1       0.00004300       0.00086200       0.02453500       0.00004300       0.00086200       0.02453500
Ga       7.35897274      11.83474022      13.36362683  T        1       0.00040100       0.00259500      -0.00025200       0.00040100       0.00259500      -0.00025200
Ga       7.34354544      11.83446884       9.50870419  F        0       0.00000000       0.00000000       0.00000000       0.00000000       0.00000000       0.00000000
Pt       5.36667275      11.83446884       7.52568531  F        0       0.00000000       0.00000000       0.00000000       0.00000000       0.00000000       0.00000000
Pt       5.37987469      11.83668022      11.47801248  T        1      -0.00209100      -0.00046900      -0.00856300      -0.00209100      -0.00046900      -0.00856300
Pt       9.34679571       9.81873243      13.41875033  T        1      -0.00060800      -0.00413800       0.00234700      -0.00060800      -0.00413800       0.00234700
Pt       5.36667275       9.85144901       9.50870419  F        0       0.00000000       0.00000000       0.00000000       0.00000000       0.00000000       0.00000000
Pt       7.34354544       9.85144901       7.52568531  F        0       0.00000000       0.00000000       0.00000000       0.00000000       0.00000000       0.00000000
Pt       7.35279735       9.88776390      11.41598643  T        1       0.00091200       0.00374500      -0.00111700       0.00091200       0.00374500      -0.00111700
Ga      11.27505505       3.75487459      13.65787612  T        1       0.01724800       0.00506400       0.00267900       0.01724800       0.00506400       0.00267900
Ga      11.29729128       3.90239167       9.50870419  F        0       0.00000000       0.00000000       0.00000000       0.00000000       0.00000000       0.00000000
Pt       9.32041836       3.90239167       7.52568531  F        0       0.00000000       0.00000000       0.00000000       0.00000000       0.00000000       0.00000000
Pt       9.26499727       3.94054926      11.45288552  T        1       0.00086600       0.00114300      -0.01250300       0.00086600       0.00114300      -0.01250300
Pt       1.38325369       2.01794366      13.43892280  T        1       0.00053100      -0.00128100       0.00019200       0.00053100      -0.00128100       0.00019200
Pt       9.32041836       1.91937256       9.50870419  F        0       0.00000000       0.00000000       0.00000000       0.00000000       0.00000000       0.00000000
Pt      11.29729128       1.91937256       7.52568531  F        0       0.00000000       0.00000000       0.00000000       0.00000000       0.00000000       0.00000000
Pt      11.31809496       2.00243580      11.41694166  T        1      -0.00228300      -0.00191600      -0.00271600      -0.00228300      -0.00191600      -0.00271600
Ga      11.30086586       8.02199627      13.63466113  T        1       0.00206800       0.00168000       0.00151400       0.00206800       0.00168000       0.00151400
Ga      11.29729128       7.86843014       9.50870419  F        0       0.00000000       0.00000000       0.00000000       0.00000000       0.00000000       0.00000000
Pt       9.32041836       7.86843014       7.52568531  F        0       0.00000000       0.00000000       0.00000000       0.00000000       0.00000000       0.00000000
Pt       9.26406035       7.82822266      11.44654347  T        1      -0.00602100      -0.00494800      -0.00601900      -0.00602100      -0.00494800      -0.00601900
Pt       0.88379459       5.86808809      13.50651291  T        1      -0.00424100       0.00609900       0.00142500      -0.00424100       0.00609900       0.00142500
Pt       9.32041836       5.88541079       9.50870419  F        0       0.00000000       0.00000000       0.00000000       0.00000000       0.00000000       0.00000000
Pt      11.29729128       5.88541079       7.52568531  F        0       0.00000000       0.00000000       0.00000000       0.00000000       0.00000000       0.00000000
Pt      11.30853926       5.88253135      11.26136302  T        1      -0.00256000       0.00039900       0.00092600      -0.00256000       0.00039900       0.00092600
Ga      11.29236195      11.80045921      13.38547473  T        1      -0.00041300       0.01073000      -0.00645100      -0.00041300       0.01073000      -0.00645100
Ga      11.29729128      11.83446884       9.50870419  F        0       0.00000000       0.00000000       0.00000000       0.00000000       0.00000000       0.00000000
Pt       9.32041836      11.83446884       7.52568531  F        0       0.00000000       0.00000000       0.00000000       0.00000000       0.00000000       0.00000000
Pt       9.39270339      11.82970569      11.46346260  T        1      -0.00632200       0.00276300       0.00714500      -0.00632200       0.00276300       0.00714500
Pt       1.39403709       9.80059266      13.44120947  T        1      -0.00536800      -0.00857000      -0.00015400      -0.00536800      -0.00857000      -0.00015400
Pt       9.32041836       9.85144901       9.50870419  F        0       0.00000000       0.00000000       0.00000000       0.00000000       0.00000000       0.00000000
Pt      11.29729128       9.85144901       7.52568531  F        0       0.00000000       0.00000000       0.00000000       0.00000000       0.00000000       0.00000000
Pt      11.31374692       9.74805898      11.43860507  T        1      -0.00362000       0.00521900      -0.00599500      -0.00362000       0.00521900      -0.00599500
C        6.19800978       5.59789198      15.62010624  T        2      -0.10144200      -0.01043600       0.04901400      -0.10144200      -0.01043600       0.04901400
O        6.81901017       5.92180413      16.55848665  T        2      -0.17220000      -0.00265100       0.10298700      -0.17220000      -0.00265100       0.10298700
74
Lattice="11.861236572265625 0.0 7.26291312298956e-16 1.913362724552739e-15 11.898115158081055 7.285493962572176e-16 0.0 0.0 31.72830581665039" Properties=species:S:1:pos:R:3:move_mask:L:1:tags:I:1:DFT_forces:R:3:forces:R:3 DFT_energy=-361.93356848 energy=-361.93356848 pbc="T T T"
Ga       3.33505657       3.71227369      13.58496550  T        1       0.00904700      -0.01034700       0.00972100       0.00904700      -0.01034700       0.00972100
Ga       3.38979995       3.90239167       9.50870419  F        0       0.00000000       0.00000000       0.00000000       0.00000000       0.00000000       0.00000000
Pt       1.41292715       3.90239167       7.52568531  F        0       0.00000000       0.00000000       0.00000000       0.00000000       0.00000000       0.00000000
Pt       1.53866464       3.96799892      11.45333627  T        1       0.00482300       0.00929000       0.00136300       0.00482300       0.00929000       0.00136300
Pt       5.31486336       1.95175109      13.42100926  T        1       0.00234500      -0.03849100      -0.00779100       0.00234500      -0.03849100      -0.00779100
Pt       1.41292715       1.91937256       9.50870419  F        0       0.00000000       0.00000000       0.00000000       0.00000000       0.00000000       0.00000000
Pt       3.38979995       1.91937256       7.52568531  F        0       0.00000000       0.00000000       0.00000000       0.00000000       0.00000000       0.00000000
Pt       3.37802190       1.87372779      11.42759599  T        1      -0.00011500       0.00538000      -0.00768800      -0.00011500       0.00538000      -0.00768800
Ga       3.40227530       8.09723417      13.45707970  T        1       0.00315200      -0.00441000       0.00537600       0.00315200      -0.00441000       0.00537600
Ga       3.38979995       7.86843014       9.50870419  F        0       0.00000000       0.00000000       0.00000000       0.00000000       0.00000000       0.00000000
Pt       1.41292715       7.86843014       7.52568531  F        0       0.00000000       0.00000000       0.00000000       0.00000000       0.00000000       0.00000000
Pt       1.53171583       7.79083839      11.48980129  T        1       0.00281900       0.00011600      -0.00790300       0.00281900       0.00011600      -0.00790300
Pt       5.64410692       5.12840766      13.86983218  T        1      -0.02339000       0.00432700       0.05161900      -0.02339000       0.00432700       0.05161900
Pt       1.41292715       5.88541079       9.50870419  F        0       0.00000000       0.00000000       0.00000000       0.00000000       0.00000000       0.00000000
Pt       3.38979995       5.88541079       7.52568531  F        0       0.00000000       0.00000000       0.00000000       0.00000000       0.00000000       0.00000000
Pt       3.42115267       5.88048772      12.21542742  T        1       0.00303500       0.01038900      -0.00520200       0.00303500       0.01038900      -0.00520200
Ga       3.38507286      11.84207638      13.37315661  T        1       0.00205000       0.00667200       0.00217400       0.00205000       0.00667200       0.00217400