69
Lattice="9.392830848693848 0.0 5.751450061854449e-16 -7.044058867660362e-16 11.50382137298584 7.044058867660362e-16 0.0 0.0 32.5377197265625" Properties=species:S:1:pos:R:3:move_mask:L:1:tags:I:1:DFT_forces:R:3:forces:R:3:magmoms:R:1 DFT_energy=-420.03427846 energy=-420.03427846 dipole="_JSON [[0.0, 0.0, 0.0]]" magmom=0.0 free_energy=-420.04226881 pbc="T T T"
Ga       4.89822573       9.68423756      14.12875280  T        1       0.00090400       0.00204300       0.00890900       0.00090400       0.00204300       0.00890900       0.00000000
Ga       4.97997267       1.94061145      11.38522465  F        0       0.00000000       0.00000000       0.00000000      -0.17664100       0.01947300       0.14107200       0.00000000
Ga       4.97997267       5.77521822       8.67374832  F        0       0.00000000       0.00000000       0.00000000       0.00549800       0.04923800       0.03543400       0.00000000
Ga       4.97997267       9.60982522       5.96227200  F        0       0.00000000       0.00000000       0.00000000      -0.01037900      -0.15557400      -0.66914300       0.00000000
Ga       2.63176496       9.60982522      10.02948696  F        0       0.00000000       0.00000000       0.00000000       0.00185600      -0.02359700       0.03605800       0.00000000
Ga       2.63176496       1.94061145       7.31800968  F        0       0.00000000       0.00000000       0.00000000       0.00194200       0.08515900      -0.01522700       0.00000000
Ga       7.32818038       5.77521822       4.60653336  F        0       0.00000000       0.00000000       0.00000000       0.00788000      -0.04301900      -0.15223600       0.00000000
Ga       7.29894849       5.43893096      13.09033596  T        1      -0.01441500       0.03772200      -0.01112700      -0.01441500       0.03772200      -0.01112700       0.00000000
Ir       7.32818038       0.02330741       4.60653336  F        0       0.00000000       0.00000000       0.00000000       0.00389200       0.14944000       2.29554200       0.00000000
Ir       2.63245841       0.02450406      12.62263619  T        1      -0.00185100      -0.02036300      -0.00214700      -0.00185100      -0.02036300      -0.00214700       0.00000000
Ir       7.32818038       3.85791454      10.02948696  F        0       0.00000000       0.00000000       0.00000000      -0.00715400      -0.20552600      -0.47659900       0.00000000
Ir       7.32818038       7.69252190       7.31800968  F        0       0.00000000       0.00000000       0.00000000       0.00229700       0.10158100      -0.25924000       0.00000000
Ir       4.97997267       7.69252190      11.38522465  F        0       0.00000000       0.00000000       0.00000000      -0.20257300       0.11913500      -0.11325600       0.00000000
Ir       4.97997267       0.02330741       8.67374832  F        0       0.00000000       0.00000000       0.00000000       0.00270400      -0.02995000      -0.20833500       0.00000000
Ir       4.97997267       3.85791454       5.96227200  F        0       0.00000000       0.00000000       0.00000000       0.00222000      -0.07812700       0.43131200       0.00000000
Ir       5.04077933       3.66608438      13.64119615  T        1      -0.00821100       0.00148100       0.00580700      -0.00821100       0.00148100       0.00580700       0.00000000
Sc       7.32818038      10.56847724       7.31800968  F        0       0.00000000       0.00000000       0.00000000      -0.00214200       0.27480600      -0.61912900       0.00000000
Sc       2.63176496       2.89926299       4.60653336  F        0       0.00000000       0.00000000       0.00000000      -0.00228900      -0.35389800       0.06822900       0.00000000
Sc       7.33934679       2.72091231      12.75201240  T        1      -0.00022200      -0.00641700       0.00115000      -0.00022200      -0.00641700       0.00115000       0.00000000
Sc       7.32818038       6.73387012      10.02948696  F        0       0.00000000       0.00000000       0.00000000      -0.03677600      -0.10661300       0.61884400       0.00000000
Sc       4.97997267       8.65117368       8.67374832  F        0       0.00000000       0.00000000       0.00000000       0.02429300      -0.07938300       0.24317800       0.00000000
Sc       4.97997267       0.98195895       5.96227200  F        0       0.00000000       0.00000000       0.00000000       0.00086700      -0.10372600      -1.18258700       0.00000000
Sc       4.92761718       0.99460602      14.07105340  T        1      -0.00111300      -0.01691300      -0.00510100      -0.00111300      -0.01691300      -0.00510100       0.00000000
Sc       4.97997267       4.81656650      11.38522465  F        0       0.00000000       0.00000000       0.00000000       0.10126600       0.26484300      -0.09001700       0.00000000
Sc       4.97997267      10.56847724      11.38522465  F        0       0.00000000       0.00000000       0.00000000       0.08463600      -0.02631600      -0.08299900       0.00000000
Sc       4.97997267       2.89926299       8.67374832  F        0       0.00000000       0.00000000       0.00000000       0.02401400       0.13582600      -0.08852600       0.00000000
Sc       4.97997267       6.73387012       5.96227200  F        0       0.00000000       0.00000000       0.00000000      -0.00462000      -0.14905000      -0.06468800       0.00000000
Sc       5.10757167       6.78033964      14.25584599  T        1       0.00519300      -0.00127400      -0.00279900       0.00519300      -0.00127400      -0.00279900       0.00000000
Sc       7.32818038       0.98195895      10.02948696  F        0       0.00000000       0.00000000       0.00000000       0.01113900      -0.11329400      -0.02798900       0.00000000
Sc       7.32818038       4.81656650       7.31800968  F        0       0.00000000       0.00000000       0.00000000       0.00440700      -0.21790800       0.04453900       0.00000000
Sc       7.32818038       8.65117368       4.60653336  F        0       0.00000000       0.00000000       0.00000000      -0.00432500       0.43935500       0.19683600       0.00000000
Sc       7.31140566       8.60446243      12.79604834  T        1       0.01224600      -0.00830400       0.01319600       0.01224600      -0.00830400       0.01319600       0.00000000
Ga       0.35901555       9.67541233      14.13273800  T        1       0.01369600      -0.00636900       0.00532400       0.01369600      -0.00636900       0.00532400       0.00000000
Ga       0.28355701       1.94061145      11.38522465  F        0       0.00000000       0.00000000       0.00000000       0.18121300       0.02571900       0.08091400       0.00000000
Ga       0.28355701       5.77521822       8.67374832  F        0       0.00000000       0.00000000       0.00000000      -0.01122300       0.04062500       0.00242600       0.00000000
Ga       0.28355701       9.60982522       5.96227200  F        0       0.00000000       0.00000000       0.00000000      -0.01244700      -0.14673400      -0.65408700       0.00000000
Ga       7.32818038       9.60982522      10.02948696  F        0       0.00000000       0.00000000       0.00000000       0.01617200      -0.04217900       0.11583500       0.00000000
Ga       7.32818038       1.94061145       7.31800968  F        0       0.00000000       0.00000000       0.00000000       0.00291300       0.10257100      -0.00725800       0.00000000
Ga       2.63176496       5.77521822       4.60653336  F        0       0.00000000       0.00000000       0.00000000       0.00912800      -0.06468600      -0.16253400       0.00000000
Ga       2.66569867       5.80112099      12.96389832  T        1      -0.00150600      -0.02915300       0.00075900      -0.00150600      -0.02915300       0.00075900       0.00000000
Ir       2.63176496       0.02330741       4.60653336  F        0       0.00000000       0.00000000       0.00000000       0.00325300       0.14430100       2.30939500       0.00000000
Ir       7.33284045      11.48618824      12.63080439  T        1      -0.00011500      -0.00805900       0.00916100      -0.00011500      -0.00805900       0.00916100       0.00000000
Ir       2.63176496       3.85791454      10.02948696  F        0       0.00000000       0.00000000       0.00000000       0.00858700      -0.13581100      -0.33022300       0.00000000
Ir       2.63176496       7.69252190       7.31800968  F        0       0.00000000       0.00000000       0.00000000       0.00217600       0.12605000      -0.28436000       0.00000000
Ir       0.28355701       7.69252190      11.38522465  F        0       0.00000000       0.00000000       0.00000000       0.18225500       0.11969900      -0.02586800       0.00000000
Ir       0.28355701       0.02330741       8.67374832  F        0       0.00000000       0.00000000       0.00000000       0.01076100      -0.03756600      -0.21132900       0.00000000
Ir       0.28355701       3.85791454       5.96227200  F        0       0.00000000       0.00000000       0.00000000      -0.00967900      -0.07972500       0.42753600       0.00000000
Ir       0.24172924       3.69825030      13.65382820  T        1       0.00680800      -0.00040900      -0.00562300       0.00680800      -0.00040900      -0.00562300       0.00000000
Sc       2.63176496      10.56847724       7.31800968  F        0       0.00000000       0.00000000       0.00000000       0.00099300       0.26938100      -0.63713400       0.00000000
Sc       7.32818038       2.89926299       4.60653336  F        0       0.00000000       0.00000000       0.00000000       0.00215400      -0.37636000       0.07812600       0.00000000
Sc       2.63125087       2.86876264      12.77973068  T        1      -0.00052300       0.00869500       0.00315100      -0.00052300       0.00869500       0.00315100       0.00000000
Sc       2.63176496       6.73387012      10.02948696  F        0       0.00000000       0.00000000       0.00000000       0.03225200      -0.06978600       0.29166600       0.00000000
Sc       0.28355701       8.65117368       8.67374832  F        0       0.00000000       0.00000000       0.00000000      -0.01850800      -0.06096300       0.19082800       0.00000000
Sc       0.28355701       0.98195895       5.96227200  F        0       0.00000000       0.00000000       0.00000000      -0.00200400      -0.09936900      -1.18725000       0.00000000
Sc       0.34833037       0.99051330      14.06983946  T        1      -0.00006900      -0.01851400      -0.00231600      -0.00006900      -0.01851400      -0.00231600       0.00000000
Sc       0.28355701       4.81656650      11.38522465  F        0       0.00000000       0.00000000       0.00000000      -0.09270300       0.17355500      -0.09300300       0.00000000
Sc       0.28355701      10.56847724      11.38522465  F        0       0.00000000       0.00000000       0.00000000      -0.08571300      -0.00183300      -0.03546400       0.00000000
Sc       0.28355701       2.89926299       8.67374832  F        0       0.00000000       0.00000000       0.00000000      -0.02803300       0.12607700      -0.08222400       0.00000000
Sc       0.28355701       6.73387012       5.96227200  F        0       0.00000000       0.00000000       0.00000000       0.00148200      -0.15801500      -0.05936400       0.00000000
Sc       0.16579335       6.77493873      14.05654210  T        1      -0.00056600       0.00392500       0.00186800      -0.00056600       0.00392500       0.00186800       0.00000000
Sc       2.63176496       0.98195895      10.02948696  F        0       0.00000000       0.00000000       0.00000000      -0.00634000       0.03755100       0.01127200       0.00000000
Sc       2.63176496       4.81656650       7.31800968  F        0       0.00000000       0.00000000       0.00000000      -0.00580200      -0.18856100      -0.00066600       0.00000000
Sc       2.63176496       8.65117368       4.60653336  F        0       0.00000000       0.00000000       0.00000000       0.00420600       0.44137300       0.21275400       0.00000000
Sc       2.63828033       8.65964298      12.73924444  T        1       0.00020000      -0.00158000      -0.00182600       0.00020000      -0.00158000      -0.00182600       0.00000000
H        4.79770820       4.86148784      15.79354345  T        2      -0.01716900      -0.02381100      -0.01218300      -0.01716900      -0.02381100      -0.01218300       0.00000000
H        3.75423957       5.77155495      16.54661388  T        2      -0.03783500       0.00416800       0.00131900      -0.03783500       0.00416800       0.00131900       0.00000000
O        4.69066463       5.75368801      16.26706057  T        2       0.01419400       0.01685500       0.00630000       0.01419400       0.01685500       0.00630000       0.00000000
C        7.34763692       7.13686757      14.40515061  T        2       0.00882100      -0.02588300      -0.02523100       0.00882100      -0.02588300      -0.02523100       0.00000000
H        7.39833032       6.80429462      15.47321295  T        2       0.00442700      -0.00602900       0.00034800       0.00442700      -0.00602900       0.00034800       0.00000000
69
Lattice="9.392830848693848 0.0 5.751450061854449e-16 -7.044058867660362e-16 11.50382137298584 7.044058867660362e-16 0.0 0.0 32.5377197265625" Properties=species:S:1:pos:R:3:move_mask:L:1:tags:I:1:DFT_forces:R:3:forces:R:3 DFT_energy=-421.03233065 energy=-421.03233065 pbc="T T T"
Ga       4.76470568       9.70884108      14.15046742  T        1       0.00587600      -0.01134700      -0.00330800       0.00587600      -0.01134700      -0.00330800
Ga       4.97997267       1.94061145      11.38522465  F        0       0.00000000       0.00000000       0.00000000       0.00000000       0.00000000       0.00000000
Ga       4.97997267       5.77521822       8.67374832  F        0       0.00000000       0.00000000       0.00000000       0.00000000       0.00000000       0.00000000
Ga       4.97997267       9.60982522       5.96227200  F        0       0.00000000       0.00000000       0.00000000       0.00000000       0.00000000       0.00000000
Ga       2.63176496       9.60982522      10.02948696  F        0       0.00000000       0.00000000       0.00000000       0.00000000       0.00000000       0.00000000
Ga       2.63176496       1.94061145       7.31800968  F        0       0.00000000       0.00000000       0.00000000       0.00000000       0.00000000       0.00000000
Ga       7.32818038       5.77521822       4.60653336  F        0       0.00000000       0.00000000       0.00000000       0.00000000       0.00000000       0.00000000
Ga       7.23297249       5.74416840      12.79069987  T        1      -0.00274300       0.00067500       0.00400200      -0.00274300       0.00067500       0.00400200
Ir       7.32818038       0.02330741       4.60653336  F        0       0.00000000       0.00000000       0.00000000       0.00000000       0.00000000       0.00000000
Ir       2.63639668      -0.01793971      12.62288054  T        1      -0.00139100      -0.00356400       0.00249600      -0.00139100      -0.00356400       0.00249600
Ir       7.32818038       3.85791454      10.02948696  F        0       0.00000000       0.00000000       0.00000000       0.00000000       0.00000000       0.00000000
Ir       7.32818038       7.69252190       7.31800968  F        0       0.00000000       0.00000000       0.00000000       0.00000000       0.00000000       0.00000000
Ir       4.97997267       7.69252190      11.38522465  F        0       0.00000000       0.00000000       0.00000000       0.00000000       0.00000000       0.00000000
Ir       4.97997267       0.02330741       8.67374832  F        0       0.00000000       0.00000000       0.00000000       0.00000000       0.00000000       0.00000000
Ir       4.97997267       3.85791454       5.96227200  F        0       0.00000000       0.00000000       0.00000000       0.00000000       0.00000000       0.00000000
Ir       5.06704201       3.64228784      13.70472982  T        1      -0.01638400      -0.00537900       0.01791300      -0.01638400      -0.00537900       0.01791300
Sc       7.32818038      10.56847724       7.31800968  F        0       0.00000000       0.00000000       0.00000000       0.00000000       0.00000000       0.00000000
Sc       2.63176496       2.89926299       4.60653336  F        0       0.00000000       0.00000000       0.00000000       0.00000000       0.00000000       0.00000000
Sc       7.35871493       2.84463300      12.76297628  T        1      -0.00202100       0.00803000       0.00966400      -0.00202100       0.00803000       0.00966400
Sc       7.32818038       6.73387012      10.02948696  F        0       0.00000000       0.00000000       0.00000000       0.00000000       0.00000000       0.00000000
Sc       4.97997267       8.65117368       8.67374832  F        0       0.00000000       0.00000000       0.00000000       0.00000000       0.00000000       0.00000000
Sc       4.97997267       0.98195895       5.96227200  F        0       0.00000000       0.00000000       0.00000000       0.00000000       0.00000000       0.00000000
Sc       5.03546212       1.00534271      14.04756131  T        1       0.00068900       0.00345600      -0.00150100       0.00068900       0.00345600      -0.00150100
Sc       4.97997267       4.81656650      11.38522465  F        0       0.00000000       0.00000000       0.00000000       0.00000000       0.00000000       0.00000000
Sc       4.97997267      10.56847724      11.38522465  F        0       0.00000000       0.00000000       0.00000000       0.00000000       0.00000000       0.00000000
Sc       4.97997267       2.89926299       8.67374832  F        0       0.00000000       0.00000000       0.00000000       0.00000000       0.00000000       0.00000000
Sc       4.97997267       6.73387012       5.96227200  F        0       0.00000000       0.00000000       0.00000000       0.00000000       0.00000000       0.00000000
Sc       5.04727178       6.65789983      14.66087013  T        1       0.02224700      -0.03307600      -0.02844600       0.02224700      -0.03307600      -0.02844600
Sc       7.32818038       0.98195895      10.02948696  F        0       0.00000000       0.00000000       0.00000000       0.00000000       0.00000000       0.00000000
Sc       7.32818038       4.81656650       7.31800968  F        0       0.00000000       0.00000000       0.00000000       0.00000000       0.00000000       0.00000000
Sc       7.32818038       8.65117368       4.60653336  F        0       0.00000000       0.00000000       0.00000000       0.00000000       0.00000000       0.00000000
Sc       7.23626520       8.66522049      12.91902888  T        1       0.00733500       0.00163400      -0.00353900       0.00733500       0.00163400      -0.00353900
Ga       0.42234726       9.64757929      14.10914589  T        1       0.01804300       0.00359200       0.00814800       0.01804300       0.00359200       0.00814800
Ga       0.28355701       1.94061145      11.38522465  F        0       0.00000000       0.00000000       0.00000000       0.00000000       0.00000000       0.00000000
Ga       0.28355701       5.77521822       8.67374832  F        0       0.00000000       0.00000000       0.00000000       0.00000000       0.00000000       0.00000000
Ga       0.28355701       9.60982522       5.96227200  F        0       0.00000000       0.00000000       0.00000000       0.00000000       0.00000000       0.00000000
Ga       7.32818038       9.60982522      10.02948696  F        0       0.00000000       0.00000000       0.00000000       0.00000000       0.00000000       0.00000000
Ga       7.32818038       1.94061145       7.31800968  F        0       0.00000000       0.00000000       0.00000000       0.00000000       0.00000000       0.00000000
Ga       2.63176496       5.77521822       4.60653336  F        0       0.00000000       0.00000000       0.00000000       0.00000000       0.00000000       0.00000000
Ga       2.66067669       5.75084453      12.97339221  T        1      -0.00694900      -0.00180400      -0.00091000      -0.00694900      -0.00180400      -0.00091000
Ir       2.63176496       0.02330741       4.60653336  F        0       0.00000000       0.00000000       0.00000000       0.00000000       0.00000000       0.00000000
Ir       7.34335043      11.54741527      12.61454492  T        1       0.00166700       0.00127100      -0.00312600       0.00166700       0.00127100      -0.00312600
Ir       2.63176496       3.85791454      10.02948696  F        0       0.00000000       0.00000000       0.00000000       0.00000000       0.00000000       0.00000000
Ir       2.63176496       7.69252190       7.31800968  F        0       0.00000000       0.00000000       0.00000000       0.00000000       0.00000000       0.00000000
Ir       0.28355701       7.69252190      11.38522465  F        0       0.00000000       0.00000000       0.00000000       0.00000000       0.00000000       0.00000000
Ir       0.28355701       0.02330741       8.67374832  F        0       0.00000000       0.00000000       0.00000000       0.00000000       0.00000000       0.00000000
Ir       0.28355701       3.85791454       5.96227200  F        0       0.00000000       0.00000000       0.00000000       0.00000000       0.00000000       0.00000000
Ir       0.33813648       3.68589978      13.65657542  T        1       0.00180500      -0.00468400      -0.01512800       0.00180500      -0.00468400      -0.01512800
Sc       2.63176496      10.56847724       7.31800968  F        0       0.00000000       0.00000000       0.00000000       0.00000000       0.00000000       0.00000000
Sc       7.32818038       2.89926299       4.60653336  F        0       0.00000000       0.00000000       0.00000000       0.00000000       0.00000000       0.00000000
Sc       2.65817125       2.83017543      12.77362641  T        1      -0.00003800       0.00393000       0.00556200      -0.00003800       0.00393000       0.00556200
Sc       2.63176496       6.73387012      10.02948696  F        0       0.00000000       0.00000000       0.00000000       0.00000000       0.00000000       0.00000000
Sc       0.28355701       8.65117368       8.67374832  F        0       0.00000000       0.00000000       0.00000000       0.00000000       0.00000000       0.00000000
Sc       0.28355701       0.98195895       5.96227200  F        0       0.00000000       0.00000000       0.00000000       0.00000000       0.00000000       0.00000000
Sc       0.30540435       0.96684914      14.05587042  T        1      -0.00859500       0.01071600      -0.00821900      -0.00859500       0.01071600      -0.00821900
Sc       0.28355701       4.81656650      11.38522465  F        0       0.00000000       0.00000000       0.00000000       0.00000000       0.00000000       0.00000000
Sc       0.28355701      10.56847724      11.38522465  F        0       0.00000000       0.00000000       0.00000000       0.00000000       0.00000000       0.00000000
Sc       0.28355701       2.89926299       8.67374832  F        0       0.00000000       0.00000000       0.00000000       0.00000000       0.00000000       0.00000000
Sc       0.28355701       6.73387012       5.96227200  F        0       0.00000000       0.00000000       0.00000000       0.00000000       0.00000000       0.00000000
Sc       0.13190359       6.75448397      14.07034467  T        1       0.00878300      -0.00191600      -0.00721300       0.00878300      -0.00191600      -0.00721300
Sc       2.63176496       0.98195895      10.02948696  F        0       0.00000000       0.00000000       0.00000000       0.00000000       0.00000000       0.00000000
Sc       2.63176496       4.81656650       7.31800968  F        0       0.00000000       0.00000000       0.00000000       0.00000000       0.00000000       0.00000000
Sc       2.63176496       8.65117368       4.60653336  F        0       0.00000000       0.00000000       0.00000000       0.00000000       0.00000000       0.00000000
Sc       2.64609533       8.60099665      12.69340824  T        1       0.00522100      -0.00520900      -0.00391500       0.00522100      -0.00520900      -0.00391500
H        5.37713639       4.54458952      15.07181889  T        2      -0.13640700      -0.08456300       0.08314700      -0.13640700      -0.08456300       0.08314700
H        4.11206939       6.19627723      17.22519800  T        2       0.01756700       0.02733800       0.00008900       0.01756700       0.02733800       0.00008900
O        4.52117539       6.65535697      16.47882842  T        2       0.03309100       0.03163000       0.01554300       0.03309100       0.03163000       0.01554300
C        7.35222553       7.10004691      14.43520547  T        2      -0.00070700      -0.00129100      -0.00880200      -0.00070700      -0.00129100      -0.00880200
H        7.51771630       6.61161379      15.43074762  T        2      -0.00419300       0.01322500       0.00319700      -0.00419300       0.01322500       0.00319700
69
Lattice="9.392830848693848 0.0 5.751450061854449e-16 -7.044058867660362e-16 11.50382137298584 7.044058867660362e-16 0.0 0.0 32.5377197265625" Properties=species:S:1:pos:R:3:move_mask:L:1:tags:I:1:DFT_forces:R:3:forces:R:3 DFT_energy=-420.87629376 energy=-420.87629376 pbc="T T T"
Ga       4.75030646       9.74959160      14.14794599  T        1       0.01156300      -0.01041700      -0.00399400       0.01156300      -0.01041700      -0.00399400
Ga       4.97997267       1.94061145      11.38522465  F        0       0.00000000       0.00000000       0.00000000       0.00000000       0.00000000       0.00000000
Ga       4.97997267       5.77521822       8.67374832  F        0       0.00000000       0.00000000       0.00000000       0.00000000       0.00000000       0.00000000
Ga       4.97997267       9.60982522       5.96227200  F        0       0.00000000       0.00000000       0.00000000       0.00000000       0.00000000       0.00000000
Ga       2.63176496       9.60982522      10.02948696  F        0       0.00000000       0.00000000       0.00000000       0.00000000       0.00000000       0.00000000
Ga       2.63176496       1.94061145       7.31800968  F        0       0.00000000       0.00000000       0.00000000       0.00000000       0.00000000       0.00000000
Ga       7.32818038       5.77521822       4.60653336  F        0       0.00000000       0.00000000       0.00000000       0.00000000       0.00000000       0.00000000
Ga       7.22499131       5.74661802      12.79990936  T        1       0.00175500       0.02132900       0.02096700       0.00175500       0.02132900       0.02096700
Ir       7.32818038       0.02330741       4.60653336  F        0       0.00000000       0.00000000       0.00000000       0.00000000       0.00000000       0.00000000
Ir       2.64789609      -0.00008519      12.62584188  T        1      -0.01210000      -0.01442400      -0.00015500      -0.01210000      -0.01442400      -0.00015500
Ir       7.32818038       3.85791454      10.02948696  F        0       0.00000000       0.00000000       0.00000000       0.00000000       0.00000000       0.00000000
Ir       7.32818038       7.69252190       7.31800968  F        0       0.00000000       0.00000000       0.00000000       0.00000000       0.00000000       0.00000000
Ir       4.97997267       7.69252190      11.38522465  F        0       0.00000000       0.00000000       0.00000000       0.00000000       0.00000000       0.00000000
Ir       4.97997267       0.02330741       8.67374832  F        0       0.00000000       0.00000000       0.00000000       0.00000000       0.00000000       0.00000000
Ir       4.97997267       3.85791454       5.96227200  F        0       0.00000000       0.00000000       0.00000000       0.00000000       0.00000000       0.00000000
Ir       5.12159232       3.70932445      13.68113641  T        1      -0.03535400      -0.07481000      -0.00556200      -0.03535400      -0.07481000      -0.00556200
Sc       7.32818038      10.56847724       7.31800968  F        0       0.00000000       0.00000000       0.00000000       0.00000000       0.00000000       0.00000000
Sc       2.63176496       2.89926299       4.60653336  F        0       0.00000000       0.00000000       0.00000000       0.00000000       0.00000000       0.00000000
Sc       7.37264629       2.83838509      12.75270758  T        1       0.01262600       0.01452800      -0.00095700       0.01262600       0.01452800      -0.00095700
Sc       7.32818038       6.73387012      10.02948696  F        0       0.00000000       0.00000000       0.00000000       0.00000000       0.00000000       0.00000000
Sc       4.97997267       8.65117368       8.67374832  F        0       0.00000000       0.00000000       0.00000000       0.00000000       0.00000000       0.00000000
Sc       4.97997267       0.98195895       5.96227200  F        0       0.00000000       0.00000000       0.00000000       0.00000000       0.00000000       0.00000000
Sc       5.04652949       1.03553986      14.05355661  T        1      -0.00028400      -0.01221900      -0.00672400      -0.00028400      -0.01221900      -0.00672400
Sc       4.97997267       4.81656650      11.38522465  F        0       0.00000000       0.00000000       0.00000000       0.00000000       0.00000000       0.00000000
Sc       4.97997267      10.56847724      11.38522465  F        0       0.00000000       0.00000000       0.00000000       0.00000000       0.00000000       0.00000000
Sc       4.97997267       2.89926299       8.67374832  F        0       0.00000000       0.00000000       0.00000000       0.00000000       0.00000000       0.00000000
Sc       4.97997267       6.73387012       5.96227200  F        0       0.00000000       0.00000000       0.00000000       0.00000000       0.00000000       0.00000000
Sc       5.00748576       6.73712940      14.68018449  T        1       0.05501600      -0.02803900      -0.03238700       0.05501600      -0.02803900      -0.03238700