77
Lattice="9.393221855163574 0.0 5.751689878057641e-16 -7.564575436824707e-16 12.353889465332031 3.1310739517211914 0.0 0.0 31.310741424560547" Properties=species:S:1:pos:R:3:move_mask:L:1:tags:I:1:DFT_forces:R:3:forces:R:3:magmoms:R:1 DFT_energy=-373.85055706 energy=-373.85055706 dipole="_JSON [[0.0, 0.0, 0.0]]" magmom=0.0 free_energy=-373.83267155 pbc="T T T"
Ti       6.91937109       7.88143584       7.27695607  F        0       0.00000000       0.00000000       0.00000000       0.00596400      -0.15588200       1.20869000       0.00000000
Ti       6.91937109       1.70449111       7.27695607  F        0       0.00000000       0.00000000       0.00000000       0.00698700      -0.28216800      -0.45458800       0.00000000
In       6.91937109      10.96990821      10.40803003  F        0       0.00000000       0.00000000       0.00000000       0.00031000       0.09172300      -0.76398200       0.00000000
In       6.91937109       4.79296348       7.27695607  F        0       0.00000000       0.00000000       0.00000000       0.00572500       0.08593500      -0.34189100       0.00000000
Ni       8.48490806       9.18548534       8.84249257  F        0       0.00000000       0.00000000       0.00000000      -0.00070100      -0.36816200      -0.14876000       0.00000000
Ni       8.48490806       3.00854108       8.84249257  F        0       0.00000000       0.00000000       0.00000000       0.01403600      -0.28227100       0.01684700       0.00000000
Ni       8.48490806       6.57738588       8.84249257  F        0       0.00000000       0.00000000       0.00000000      -0.00795600       0.46680900      -0.37772000       0.00000000
Ni       8.48490806       0.40044126       5.71141862  F        0       0.00000000       0.00000000       0.00000000      -0.00577800       0.07176000       0.99005000       0.00000000
Ti       6.91937109       7.88143584      10.40803003  F        0       0.00000000       0.00000000       0.00000000      -0.00370200       0.13209500      -0.22335400       0.00000000
Ti       6.91937109       1.70449111      10.40803003  F        0       0.00000000       0.00000000       0.00000000      -0.01962600       0.07272900      -0.06678500       0.00000000
In       6.91937109      10.96990821      13.53910398  F        0       0.00000000       0.00000000       0.00000000       0.04367700       0.00290100       0.06077100       0.00000000
In       6.91937109       4.79296348      10.40803003  F        0       0.00000000       0.00000000       0.00000000       0.00496900       0.01511500       0.19324700       0.00000000
Ni       8.48490806       9.18548534      11.97356652  F        0       0.00000000       0.00000000       0.00000000       0.04709300       0.01403200      -0.20386000       0.00000000
Ni       8.48490806       3.00854108      11.97356652  F        0       0.00000000       0.00000000       0.00000000       0.02289300      -0.14224800       0.00466200       0.00000000
Ni       8.48490806       6.57738588      11.97356652  F        0       0.00000000       0.00000000       0.00000000       0.08460500       0.00598800      -0.13805200       0.00000000
Ni       8.48490806       0.40044126       8.84249257  F        0       0.00000000       0.00000000       0.00000000       0.00609400       0.28011000      -0.11520400       0.00000000
Ti       6.91211149       7.87993786      13.47131778  T        1      -0.00313500       0.01168400       0.00575800      -0.00313500       0.01168400       0.00575800       0.00000000
Ti       6.91458461       1.70204978      13.49318614  T        1      -0.00076400       0.00583700       0.00932400      -0.00076400       0.00583700       0.00932400       0.00000000
In       6.93264610      11.02995573      16.75376512  T        1      -0.00339300       0.01577200       0.01509700      -0.00339300       0.01577200       0.01509700       0.00000000
In       6.90096984       4.79016043      13.62464709  T        1       0.01075900       0.00576500       0.04558300       0.01075900       0.00576500       0.04558300       0.00000000
Ni       8.39285754       9.16509757      15.12013057  T        1      -0.00967900       0.00829300      -0.00440100      -0.00967900       0.00829300      -0.00440100       0.00000000
Ni       8.50528356       2.97969397      14.81919676  T        1       0.00742800       0.00265300      -0.00545100       0.00742800       0.00265300      -0.00545100       0.00000000
Ni       8.39898020       6.64090111      14.90996416  T        1      -0.01488700       0.00708700       0.01034800      -0.01488700       0.00708700       0.01034800       0.00000000
Ni       8.48545696       0.41464645      11.91234192  T        1      -0.00785300      -0.00613400      -0.00314300      -0.00785300      -0.00613400      -0.00314300       0.00000000
Ti       0.65722318       7.88143584       7.27695607  F        0       0.00000000       0.00000000       0.00000000       0.00181400      -0.16802700       1.22473600       0.00000000
Ti       0.65722318       1.70449111       7.27695607  F        0       0.00000000       0.00000000       0.00000000       0.00323500      -0.28770300      -0.46216600       0.00000000
In       0.65722318      10.96990821      10.40803003  F        0       0.00000000       0.00000000       0.00000000      -0.00205500       0.09689100      -0.74092300       0.00000000
In       0.65722318       4.79296348       7.27695607  F        0       0.00000000       0.00000000       0.00000000       0.00101000       0.09427100      -0.36909000       0.00000000
Ni       2.22276016       9.18548534       8.84249257  F        0       0.00000000       0.00000000       0.00000000       0.00151700      -0.36304400      -0.14301700       0.00000000
Ni       2.22276016       3.00854108       8.84249257  F        0       0.00000000       0.00000000       0.00000000      -0.00003900      -0.28160500       0.03713800       0.00000000
Ni       2.22276016       6.57738588       8.84249257  F        0       0.00000000       0.00000000       0.00000000      -0.00280800       0.46811700      -0.38687700       0.00000000
Ni       2.22276016       0.40044126       5.71141862  F        0       0.00000000       0.00000000       0.00000000      -0.00114900       0.06511000       0.98337200       0.00000000
Ti       0.65722318       7.88143584      10.40803003  F        0       0.00000000       0.00000000       0.00000000       0.00790900       0.11830300      -0.01890900       0.00000000
Ti       0.65722318       1.70449111      10.40803003  F        0       0.00000000       0.00000000       0.00000000       0.05220700       0.02318400      -0.03675000       0.00000000
In       0.65722318      10.96990821      13.53910398  F        0       0.00000000       0.00000000       0.00000000      -0.17936100       0.01053800       0.03790700       0.00000000
In       0.65722318       4.79296348      10.40803003  F        0       0.00000000       0.00000000       0.00000000       0.00299200       0.01300300       0.27572000       0.00000000
Ni       2.22276016       9.18548534      11.97356652  F        0       0.00000000       0.00000000       0.00000000       0.04747300      -0.10162900      -0.05456600       0.00000000
Ni       2.22276016       3.00854108      11.97356652  F        0       0.00000000       0.00000000       0.00000000      -0.02389900      -0.21139700       0.13104400       0.00000000
Ni       2.22276016       6.57738588      11.97356652  F        0       0.00000000       0.00000000       0.00000000       0.03586600       0.16408400      -0.09074000       0.00000000
Ni       2.22276016       0.40044126       8.84249257  F        0       0.00000000       0.00000000       0.00000000      -0.00049100       0.32541500      -0.13379100       0.00000000
Ti       0.64923006       7.90922797      13.55227404  T        1      -0.01870800       0.01387600      -0.00308200      -0.01870800       0.01387600      -0.00308200       0.00000000
Ti       0.64798581       1.67514456      13.48905604  T        1       0.00804300       0.00327600      -0.01083000       0.00804300       0.00327600      -0.01083000       0.00000000
In       0.63815303      10.81943045      16.69034516  T        1       0.00332400       0.00745800       0.00485700       0.00332400       0.00745800       0.00485700       0.00000000
In       0.63820152       4.84128054      13.67862515  T        1       0.00515500       0.00606800      -0.00971900       0.00515500       0.00606800      -0.00971900       0.00000000
Ni       2.19658433       9.28098390      14.99361478  T        1       0.01751000       0.01560600       0.01062200       0.01751000       0.01560600       0.01062200       0.00000000
Ni       2.23555745       3.00193080      14.78668004  T        1       0.01991600      -0.00089800      -0.00370800       0.01991600      -0.00089800      -0.00370800       0.00000000
Ni       2.18356806       6.69444594      14.89791623  T        1       0.00378600       0.00365800       0.00788900       0.00378600       0.00365800       0.00788900       0.00000000
Ni       2.22242426       0.34711648      11.97588539  T        1      -0.00323400       0.00156100      -0.00789300      -0.00323400       0.00156100      -0.00789300       0.00000000
Ti       3.78829714       7.88143584       7.27695607  F        0       0.00000000       0.00000000       0.00000000      -0.00929900      -0.16098500       1.22398800       0.00000000
Ti       3.78829714       1.70449111       7.27695607  F        0       0.00000000       0.00000000       0.00000000       0.00091700      -0.29515100      -0.45793500       0.00000000
In       3.78829714      10.96990821      10.40803003  F        0       0.00000000       0.00000000       0.00000000       0.00487400       0.09481400      -0.74101800       0.00000000
In       3.78829714       4.79296348       7.27695607  F        0       0.00000000       0.00000000       0.00000000      -0.00548900       0.10014900      -0.35627200       0.00000000
Ni       5.35383459       9.18548534       8.84249257  F        0       0.00000000       0.00000000       0.00000000      -0.00501500      -0.36744600      -0.15194400       0.00000000
Ni       5.35383459       3.00854108       8.84249257  F        0       0.00000000       0.00000000       0.00000000      -0.01860000      -0.28215000       0.02143900       0.00000000
Ni       5.35383459       6.57738588       8.84249257  F        0       0.00000000       0.00000000       0.00000000      -0.00386500       0.46970100      -0.39378700       0.00000000
Ni       5.35383459       0.40044126       5.71141862  F        0       0.00000000       0.00000000       0.00000000      -0.00051000       0.07818500       0.99238400       0.00000000
Ti       3.78829714       7.88143584      10.40803003  F        0       0.00000000       0.00000000       0.00000000      -0.00294200       0.12707100       0.02549800       0.00000000
Ti       3.78829714       1.70449111      10.40803003  F        0       0.00000000       0.00000000       0.00000000      -0.05257200       0.00820200      -0.04653500       0.00000000
In       3.78829714      10.96990821      13.53910398  F        0       0.00000000       0.00000000       0.00000000       0.15302300      -0.03998700       0.05232200       0.00000000
In       3.78829714       4.79296348      10.40803003  F        0       0.00000000       0.00000000       0.00000000      -0.00093000       0.00405300       0.24904900       0.00000000
Ni       5.35383459       9.18548534      11.97356652  F        0       0.00000000       0.00000000       0.00000000      -0.08622500      -0.02099000      -0.16185800       0.00000000
Ni       5.35383459       3.00854108      11.97356652  F        0       0.00000000       0.00000000       0.00000000      -0.03507500      -0.17877200       0.00859500       0.00000000
Ni       5.35383459       6.57738588      11.97356652  F        0       0.00000000       0.00000000       0.00000000      -0.15702500       0.05195600      -0.05409900       0.00000000
Ni       5.35383459       0.40044126       8.84249257  F        0       0.00000000       0.00000000       0.00000000      -0.01526200       0.29899200      -0.12238500       0.00000000
Ti       3.80097491       7.91078796      13.58677393  T        1       0.01538300       0.00554700      -0.01172200       0.01538300       0.00554700      -0.01172200       0.00000000
Ti       3.78625399       1.66405974      13.48100432  T        1      -0.00665900       0.00046400      -0.00981800      -0.00665900       0.00046400      -0.00981800       0.00000000
In       3.81445304      10.76581078      16.67948533  T        1       0.00086400       0.02355800       0.01375300       0.00086400       0.02355800       0.01375300       0.00000000
In       3.78508406       4.86407509      13.65673731  T        1       0.00064200       0.01312100       0.00548700       0.00064200       0.01312100       0.00548700       0.00000000
Ni       5.51550621       9.18550713      15.11887810  T        1       0.01141100      -0.00087600       0.00638000       0.01141100      -0.00087600       0.00638000       0.00000000
Ni       5.28513759       2.98367072      14.80670176  T        1      -0.00351900       0.00887600      -0.01819500      -0.00351900       0.00887600      -0.01819500       0.00000000
Ni       5.44502876       6.63809141      15.01400117  T        1       0.01882800      -0.00429700      -0.00605400       0.01882800      -0.00429700      -0.00605400       0.00000000
Ni       5.34551848       0.39678503      11.91953997  T        1       0.02066300       0.00933300      -0.00211800       0.02066300       0.00933300      -0.00211800       0.00000000
H        4.04792544       5.44610429      17.16815329  T        2       0.00017300      -0.02978900      -0.01005600       0.00017300      -0.02978900      -0.01005600       0.00000000
H        4.15343214       6.98397031      17.30182946  T        2      -0.01813700       0.01758200      -0.00681300      -0.01813700       0.01758200      -0.00681300       0.00000000
O        4.69780290       6.17532601      17.20472302  T        2       0.02925000      -0.00289500      -0.01237700       0.02925000      -0.00289500      -0.01237700       0.00000000
C        6.95584612       7.86477115      15.67077935  T        2      -0.00553300      -0.00852800       0.02570100      -0.00553300      -0.00852800       0.02570100       0.00000000
H        6.96112073       7.70357320      16.76500362  T        2       0.00754800       0.00472300      -0.01601700       0.00754800       0.00472300      -0.01601700       0.00000000
77
Lattice="9.393221855163574 0.0 5.751689878057641e-16 -7.564575436824707e-16 12.353889465332031 3.1310739517211914 0.0 0.0 31.310741424560547" Properties=species:S:1:pos:R:3:move_mask:L:1:tags:I:1:DFT_forces:R:3:forces:R:3 DFT_energy=-373.63566359 energy=-373.63566359 pbc="T T T"
Ti       6.91937109       7.88143584       7.27695607  F        0       0.00000000       0.00000000       0.00000000       0.00000000       0.00000000       0.00000000
Ti       6.91937109       1.70449111       7.27695607  F        0       0.00000000       0.00000000       0.00000000       0.00000000       0.00000000       0.00000000
In       6.91937109      10.96990821      10.40803003  F        0       0.00000000       0.00000000       0.00000000       0.00000000       0.00000000       0.00000000
In       6.91937109       4.79296348       7.27695607  F        0       0.00000000       0.00000000       0.00000000       0.00000000       0.00000000       0.00000000
Ni       8.48490806       9.18548534       8.84249257  F        0       0.00000000       0.00000000       0.00000000       0.00000000       0.00000000       0.00000000
Ni       8.48490806       3.00854108       8.84249257  F        0       0.00000000       0.00000000       0.00000000       0.00000000       0.00000000       0.00000000
Ni       8.48490806       6.57738588       8.84249257  F        0       0.00000000       0.00000000       0.00000000       0.00000000       0.00000000       0.00000000
Ni       8.48490806       0.40044126       5.71141862  F        0       0.00000000       0.00000000       0.00000000       0.00000000       0.00000000       0.00000000
Ti       6.91937109       7.88143584      10.40803003  F        0       0.00000000       0.00000000       0.00000000       0.00000000       0.00000000       0.00000000
Ti       6.91937109       1.70449111      10.40803003  F        0       0.00000000       0.00000000       0.00000000       0.00000000       0.00000000       0.00000000
In       6.91937109      10.96990821      13.53910398  F        0       0.00000000       0.00000000       0.00000000       0.00000000       0.00000000       0.00000000
In       6.91937109       4.79296348      10.40803003  F        0       0.00000000       0.00000000       0.00000000       0.00000000       0.00000000       0.00000000
Ni       8.48490806       9.18548534      11.97356652  F        0       0.00000000       0.00000000       0.00000000       0.00000000       0.00000000       0.00000000
Ni       8.48490806       3.00854108      11.97356652  F        0       0.00000000       0.00000000       0.00000000       0.00000000       0.00000000       0.00000000
Ni       8.48490806       6.57738588      11.97356652  F        0       0.00000000       0.00000000       0.00000000       0.00000000       0.00000000       0.00000000
Ni       8.48490806       0.40044126       8.84249257  F        0       0.00000000       0.00000000       0.00000000       0.00000000       0.00000000       0.00000000
Ti       6.92483385       7.90552794      13.45570797  T        1       0.01406900       0.01681500      -0.01233800       0.01406900       0.01681500      -0.01233800
Ti       6.92377893       1.72589246      13.51144712  T        1       0.00749600      -0.02243300      -0.01273600       0.00749600      -0.02243300      -0.01273600
In       6.92657282      11.05105343      16.75323550  T        1       0.00046600      -0.01777200       0.00505600       0.00046600      -0.01777200       0.00505600
In       6.94785233       4.76625645      13.61303819  T        1      -0.00030400      -0.02728800       0.00765900      -0.00030400      -0.02728800       0.00765900
Ni       8.28663334       9.16097761      15.15199068  T        1       0.02007300       0.00404200      -0.00256300       0.02007300       0.00404200      -0.00256300
Ni       8.61055400       3.00282394      14.79773309  T        1      -0.00549900      -0.01394500       0.00887500      -0.00549900      -0.01394500       0.00887500
Ni       8.33829292       6.64715263      14.92640133  T        1       0.00290800      -0.00790700      -0.00615600       0.00290800      -0.00790700      -0.00615600
Ni       8.47227286       0.40913944      11.92466428  T        1       0.00336300      -0.00531800      -0.00776000       0.00336300      -0.00531800      -0.00776000
Ti       0.65722318       7.88143584       7.27695607  F        0       0.00000000       0.00000000       0.00000000       0.00000000       0.00000000       0.00000000
Ti       0.65722318       1.70449111       7.27695607  F        0       0.00000000       0.00000000       0.00000000       0.00000000       0.00000000       0.00000000
In       0.65722318      10.96990821      10.40803003  F        0       0.00000000       0.00000000       0.00000000       0.00000000       0.00000000       0.00000000
In       0.65722318       4.79296348       7.27695607  F        0       0.00000000       0.00000000       0.00000000       0.00000000       0.00000000       0.00000000
Ni       2.22276016       9.18548534       8.84249257  F        0       0.00000000       0.00000000       0.00000000       0.00000000       0.00000000       0.00000000
Ni       2.22276016       3.00854108       8.84249257  F        0       0.00000000       0.00000000       0.00000000       0.00000000       0.00000000       0.00000000
Ni       2.22276016       6.57738588       8.84249257  F        0       0.00000000       0.00000000       0.00000000       0.00000000       0.00000000       0.00000000
Ni       2.22276016       0.40044126       5.71141862  F        0       0.00000000       0.00000000       0.00000000       0.00000000       0.00000000       0.00000000
Ti       0.65722318       7.88143584      10.40803003  F        0       0.00000000       0.00000000       0.00000000       0.00000000       0.00000000       0.00000000
Ti       0.65722318       1.70449111      10.40803003  F        0       0.00000000       0.00000000       0.00000000       0.00000000       0.00000000       0.00000000
In       0.65722318      10.96990821      13.53910398  F        0       0.00000000       0.00000000       0.00000000       0.00000000       0.00000000       0.00000000
In       0.65722318       4.79296348      10.40803003  F        0       0.00000000       0.00000000       0.00000000       0.00000000       0.00000000       0.00000000
Ni       2.22276016       9.18548534      11.97356652  F        0       0.00000000       0.00000000       0.00000000       0.00000000       0.00000000       0.00000000
Ni       2.22276016       3.00854108      11.97356652  F        0       0.00000000       0.00000000       0.00000000       0.00000000       0.00000000       0.00000000
Ni       2.22276016       6.57738588      11.97356652  F        0       0.00000000       0.00000000       0.00000000       0.00000000       0.00000000       0.00000000
Ni       2.22276016       0.40044126       8.84249257  F        0       0.00000000       0.00000000       0.00000000       0.00000000       0.00000000       0.00000000
Ti       0.67635762       7.91408258      13.63027124  T        1       0.00674000      -0.00367000      -0.00807400       0.00674000      -0.00367000      -0.00807400
Ti       0.66299902       1.65994457      13.47302336  T        1      -0.00380500      -0.00323400      -0.00432500      -0.00380500      -0.00323400      -0.00432500
In       0.64012294      10.72630849      16.67995374  T        1       0.00124800       0.00787200       0.00482500       0.00124800       0.00787200       0.00482500
In       0.67297617       4.92040920      13.69568007  T        1       0.00112300      -0.02115700       0.00355800       0.00112300      -0.02115700       0.00355800
Ni       2.30119884       9.31709302      14.99723954  T        1      -0.00460900      -0.00539000       0.00242000      -0.00460900      -0.00539000       0.00242000
Ni       2.22026824       3.02042429      14.76470634  T        1       0.00874300      -0.01023300      -0.00731500       0.00874300      -0.01023300      -0.00731500
Ni       2.37238948       6.67237494      14.96965026  T        1      -0.03218600       0.00306200      -0.00227800      -0.03218600       0.00306200      -0.00227800
Ni       2.22855997       0.34439453      11.97247567  T        1      -0.01103800      -0.00526200      -0.00944300      -0.01103800      -0.00526200      -0.00944300
Ti       3.78829714       7.88143584       7.27695607  F        0       0.00000000       0.00000000       0.00000000       0.00000000       0.00000000       0.00000000
Ti       3.78829714       1.70449111       7.27695607  F        0       0.00000000       0.00000000       0.00000000       0.00000000       0.00000000       0.00000000
In       3.78829714      10.96990821      10.40803003  F        0       0.00000000       0.00000000       0.00000000       0.00000000       0.00000000       0.00000000
In       3.78829714       4.79296348       7.27695607  F        0       0.00000000       0.00000000       0.00000000       0.00000000       0.00000000       0.00000000
Ni       5.35383459       9.18548534       8.84249257  F        0       0.00000000       0.00000000       0.00000000       0.00000000       0.00000000       0.00000000
Ni       5.35383459       3.00854108       8.84249257  F        0       0.00000000       0.00000000       0.00000000       0.00000000       0.00000000       0.00000000
Ni       5.35383459       6.57738588       8.84249257  F        0       0.00000000       0.00000000       0.00000000       0.00000000       0.00000000       0.00000000
Ni       5.35383459       0.40044126       5.71141862  F        0       0.00000000       0.00000000       0.00000000       0.00000000       0.00000000       0.00000000
Ti       3.78829714       7.88143584      10.40803003  F        0       0.00000000       0.00000000       0.00000000       0.00000000       0.00000000       0.00000000
Ti       3.78829714       1.70449111      10.40803003  F        0       0.00000000       0.00000000       0.00000000       0.00000000       0.00000000       0.00000000
In       3.78829714      10.96990821      13.53910398  F        0       0.00000000       0.00000000       0.00000000       0.00000000       0.00000000       0.00000000
In       3.78829714       4.79296348      10.40803003  F        0       0.00000000       0.00000000       0.00000000       0.00000000       0.00000000       0.00000000
Ni       5.35383459       9.18548534      11.97356652  F        0       0.00000000       0.00000000       0.00000000       0.00000000       0.00000000       0.00000000
Ni       5.35383459       3.00854108      11.97356652  F        0       0.00000000       0.00000000       0.00000000       0.00000000       0.00000000       0.00000000
Ni       5.35383459       6.57738588      11.97356652  F        0       0.00000000       0.00000000       0.00000000       0.00000000       0.00000000       0.00000000
Ni       5.35383459       0.40044126       8.84249257  F        0       0.00000000       0.00000000       0.00000000       0.00000000       0.00000000       0.00000000
Ti       3.79039975       7.92314034      13.53293026  T        1      -0.00131100      -0.00099600       0.00960900      -0.00131100      -0.00099600       0.00960900
Ti       3.79454901       1.67415491      13.48638844  T        1      -0.00323300      -0.02235200      -0.01552700      -0.00323300      -0.02235200      -0.01552700
In       3.82939094      10.85212565      16.70647072  T        1      -0.00223700      -0.00672800       0.00528200      -0.00223700      -0.00672800       0.00528200
In       3.79098722       4.84054968      13.50838705  T        1       0.02527300      -0.00002300       0.04434400       0.02527300      -0.00002300       0.04434400
Ni       5.41934438       9.12753281      15.14023725  T        1       0.01214000       0.01641800       0.00381100       0.01214000       0.01641800       0.00381100
Ni       5.26056472       3.05888469      14.78149489  T        1       0.00803100      -0.08019900       0.00077900       0.00803100      -0.08019900       0.00077900
Ni       5.47513961       6.61102784      14.83322308  T        1       0.03944800       0.04620500      -0.07068700       0.03944800       0.04620500      -0.07068700
Ni       5.37110311       0.42444737      11.92301843  T        1       0.00272600      -0.00617700      -0.00869500       0.00272600      -0.00617700      -0.00869500
H        4.25651490       5.18279461      16.26472231  T        2      -0.19484800      -0.00052500       0.22253500      -0.19484800      -0.00052500       0.22253500
H        3.98018735       6.37022147      17.25717315  T        2       0.00724500       0.05055900       0.03947600       0.00724500       0.05055900       0.03947600
O        3.52880270       5.68784806      16.72125119  T        2      -0.12394900      -0.01352500       0.19915100      -0.12394900      -0.01352500       0.19915100
C        6.86831722       7.82621577      15.68768345  T        2       0.01782300       0.01070500      -0.00265400       0.01782300       0.01070500      -0.00265400
H        6.86182059       7.67976064      16.78417697  T        2       0.01423300       0.00295500       0.00188400       0.01423300       0.00295500       0.00188400
77
Lattice="9.393221855163574 0.0 5.751689878057641e-16 -7.564575436824707e-16 12.353889465332031 3.1310739517211914 0.0 0.0 31.310741424560547" Properties=species:S:1:pos:R:3:move_mask:L:1:tags:I:1:DFT_forces:R:3:forces:R:3 DFT_energy=-373.14383162 energy=-373.14383162 pbc="T T T"
Ti       6.91937109       7.88143584       7.27695607  F        0       0.00000000       0.00000000       0.00000000       0.00000000       0.00000000       0.00000000
Ti       6.91937109       1.70449111       7.27695607  F        0       0.00000000       0.00000000       0.00000000       0.00000000       0.00000000       0.00000000
In       6.91937109      10.96990821      10.40803003  F        0       0.00000000       0.00000000       0.00000000       0.00000000       0.00000000       0.00000000
In       6.91937109       4.79296348       7.27695607  F        0       0.00000000       0.00000000       0.00000000       0.00000000       0.00000000       0.00000000
Ni       8.48490806       9.18548534       8.84249257  F        0       0.00000000       0.00000000       0.00000000       0.00000000       0.00000000       0.00000000
Ni       8.48490806       3.00854108       8.84249257  F        0       0.00000000       0.00000000       0.00000000       0.00000000       0.00000000       0.00000000
Ni       8.48490806       6.57738588       8.84249257  F        0       0.00000000       0.00000000       0.00000000       0.00000000       0.00000000       0.00000000
Ni       8.48490806       0.40044126       5.71141862  F        0       0.00000000       0.00000000       0.00000000       0.00000000       0.00000000       0.00000000
Ti       6.91937109       7.88143584      10.40803003  F        0       0.00000000       0.00000000       0.00000000       0.00000000       0.00000000       0.00000000
Ti       6.91937109       1.70449111      10.40803003  F        0       0.00000000       0.00000000       0.00000000       0.00000000       0.00000000       0.00000000
In       6.91937109      10.96990821      13.53910398  F        0       0.00000000       0.00000000       0.00000000       0.00000000       0.00000000       0.00000000