27
Lattice="8.694450378417969 0.0 5.323815419916867e-16 4.347225189208984 8.90892219543457 2.5098717212677 0.0 0.0 35.138206481933594" Properties=species:S:1:pos:R:3:move_mask:L:1:tags:I:1:DFT_forces:R:3:forces:R:3:magmoms:R:1 DFT_energy=-85.1473335 energy=-85.1473335 dipole="_JSON [[0.0, 0.0, 0.0]]" magmom=0.0 free_energy=-85.16004503 pbc="T T T"
Sr       7.85419847       2.32730060      12.86230713  F        0       0.00000000       0.00000000       0.00000000      -0.07657500      -0.07750500       0.04099000       0.00000000
Sr       3.50697328       2.32730060      10.35243469  F        0       0.00000000       0.00000000       0.00000000       0.15694400      -0.18108800       0.12259200       0.00000000
Sr       3.50697328       6.78176170      10.35243469  F        0       0.00000000       0.00000000       0.00000000      -0.01370100       0.11315600       0.47914500       0.00000000
Sr       7.85419847       6.78176170      12.86230713  F        0       0.00000000       0.00000000       0.00000000      -0.01309400      -0.00600600      -0.03077000       0.00000000
Ag       6.40512373       0.10006958      10.35243541  F        0       0.00000000       0.00000000       0.00000000      -0.19330100       0.02404700      -0.13177300       0.00000000
Ag       2.05789854       0.10006958       7.84256297  F        0       0.00000000       0.00000000       0.00000000       0.29746600      -0.10309900       0.31038000       0.00000000
Ag       4.95604851       4.55453115      12.86230713  F        0       0.00000000       0.00000000       0.00000000       0.17465500      -0.06149300       0.02916200       0.00000000
Ag       9.30327358       4.55453115      10.35243469  F        0       0.00000000       0.00000000       0.00000000      -0.13143700       0.08176700       0.19016000       0.00000000
Bi      10.75234868       4.55453115      12.86230713  F        0       0.00000000       0.00000000       0.00000000       0.16196100      -0.05557600      -0.30435200       0.00000000
Bi       6.40512373       4.55453115      10.35243469  F        0       0.00000000       0.00000000       0.00000000      -0.39347100       0.07556300      -0.32681800       0.00000000
Bi       0.60882332       0.10006958      10.35243541  F        0       0.00000000       0.00000000       0.00000000      -0.11979500       0.09043800      -0.26998500       0.00000000
Bi       4.95604898       0.10006958       7.84256297  F        0       0.00000000       0.00000000       0.00000000       0.08418000      -0.08448000      -0.17007400       0.00000000
Sr       7.52720674       2.27363223      17.61127912  T        1       0.00516500       0.02703000      -0.00526000       0.00516500       0.02703000      -0.00526000       0.00000000
Sr       3.57428096       2.17030021      15.59894343  T        1       0.01263800       0.00274100       0.01213500       0.01263800       0.00274100       0.01213500       0.00000000
Sr       3.56312420       6.76720857      15.32873641  T        1       0.01372300       0.00246400      -0.00445300       0.01372300       0.00246400      -0.00445300       0.00000000
Sr       7.75105868       6.74388237      18.04055418  T        1       0.01557300      -0.00438800      -0.01495200       0.01557300      -0.00438800      -0.01495200       0.00000000
Ag      10.83923485       8.43387720      17.91765014  T        1       0.03311500      -0.00428000      -0.00490800       0.03311500      -0.00428000      -0.00490800       0.00000000
Ag       2.05789854       0.10006958      12.86230594  F        0       0.00000000       0.00000000       0.00000000       0.02542700      -0.01828600       0.09614400       0.00000000
Ag       4.89309281       4.64417304      18.06970352  T        1       0.01878200       0.01722900       0.00398400       0.01878200       0.01722900       0.00398400       0.00000000
Ag       9.30327358       4.55453115      15.37217766  F        0       0.00000000       0.00000000       0.00000000       0.07316200      -0.02906700       0.18128900       0.00000000
Bi      10.74308026       4.75448933      17.87044339  T        1      -0.02952100       0.03432300       0.00321300      -0.02952100       0.03432300       0.00321300       0.00000000
Bi       6.40512373       4.55453115      15.37217766  F        0       0.00000000       0.00000000       0.00000000      -0.18446400       0.14015100      -0.27906700       0.00000000
Bi       0.62564336       0.05207094      15.36556172  T        1      -0.04373400       0.01178100       0.02072600      -0.04373400       0.01178100       0.02072600       0.00000000
Bi       4.95604898       0.10006958      12.86230594  F        0       0.00000000       0.00000000       0.00000000       0.11626700       0.01100700       0.02465300       0.00000000
H        6.51755500       4.45099954      18.82882218  T        2       0.02238800      -0.00050400       0.03177300       0.02238800      -0.00050400       0.03177300       0.00000000
C        8.94506279       8.77434045      19.33989011  T        2       0.01663000       0.00975700      -0.00081900       0.01663000       0.00975700      -0.00081900       0.00000000
C        5.43184916       0.72396163      17.28336091  T        2      -0.02898200      -0.01568100      -0.00311400      -0.02898200      -0.01568100      -0.00311400       0.00000000
27
Lattice="8.694450378417969 0.0 5.323815419916867e-16 4.347225189208984 8.90892219543457 2.5098717212677 0.0 0.0 35.138206481933594" Properties=species:S:1:pos:R:3:move_mask:L:1:tags:I:1:DFT_forces:R:3:forces:R:3 DFT_energy=-79.89599408 energy=-79.89599408 pbc="T T T"
Sr       7.85419847       2.32730060      12.86230713  F        0       0.00000000       0.00000000       0.00000000       0.00000000       0.00000000       0.00000000
Sr       3.50697328       2.32730060      10.35243469  F        0       0.00000000       0.00000000       0.00000000       0.00000000       0.00000000       0.00000000
Sr       3.50697328       6.78176170      10.35243469  F        0       0.00000000       0.00000000       0.00000000       0.00000000       0.00000000       0.00000000
Sr       7.85419847       6.78176170      12.86230713  F        0       0.00000000       0.00000000       0.00000000       0.00000000       0.00000000       0.00000000
Ag       6.40512373       0.10006958      10.35243541  F        0       0.00000000       0.00000000       0.00000000       0.00000000       0.00000000       0.00000000
Ag       2.05789854       0.10006958       7.84256297  F        0       0.00000000       0.00000000       0.00000000       0.00000000       0.00000000       0.00000000
Ag       4.95604851       4.55453115      12.86230713  F        0       0.00000000       0.00000000       0.00000000       0.00000000       0.00000000       0.00000000
Ag       9.30327358       4.55453115      10.35243469  F        0       0.00000000       0.00000000       0.00000000       0.00000000       0.00000000       0.00000000
Bi      10.75234868       4.55453115      12.86230713  F        0       0.00000000       0.00000000       0.00000000       0.00000000       0.00000000       0.00000000
Bi       6.40512373       4.55453115      10.35243469  F        0       0.00000000       0.00000000       0.00000000       0.00000000       0.00000000       0.00000000
Bi       0.60882332       0.10006958      10.35243541  F        0       0.00000000       0.00000000       0.00000000       0.00000000       0.00000000       0.00000000
Bi       4.95604898       0.10006958       7.84256297  F        0       0.00000000       0.00000000       0.00000000       0.00000000       0.00000000       0.00000000
Sr       9.13567369       2.32388169      17.65754745  T        1       0.00843600       0.02133700      -0.01094100       0.00843600       0.02133700      -0.01094100
Sr       3.57448269       2.41844169      15.48289334  T        1      -0.02097100       0.01990800      -0.00240400      -0.02097100       0.01990800      -0.00240400
Sr       3.42859102       6.64739073      15.37745981  T        1      -0.01077800      -0.00382500      -0.00278600      -0.01077800      -0.00382500      -0.00278600
Sr       8.08902493       7.23823965      18.21749028  T        1       0.00132100      -0.00162200      -0.00849600       0.00132100      -0.00162200      -0.00849600
Ag      10.88464575       9.40748990      17.82226695  T        1       0.00466200       0.01314200      -0.00383100       0.00466200       0.01314200      -0.00383100
Ag       2.05789854       0.10006958      12.86230594  F        0       0.00000000       0.00000000       0.00000000       0.00000000       0.00000000       0.00000000
Ag       5.92654113       4.81373399      18.21315891  T        1       0.00609800      -0.01330800       0.01471800       0.00609800      -0.01330800       0.01471800
Ag       9.30327358       4.55453115      15.37217766  F        0       0.00000000       0.00000000       0.00000000       0.00000000       0.00000000       0.00000000
Bi      11.67224212       5.17646828      18.65783592  T        1       0.00523500       0.00078800      -0.00617900       0.00523500       0.00078800      -0.00617900
Bi       6.40512373       4.55453115      15.37217766  F        0       0.00000000       0.00000000       0.00000000       0.00000000       0.00000000       0.00000000
Bi       0.57508339      -0.43639923      15.44608344  T        1      -0.02499100       0.02718800      -0.00750800      -0.02499100       0.02718800      -0.00750800
Bi       4.95604898       0.10006958      12.86230594  F        0       0.00000000       0.00000000       0.00000000       0.00000000       0.00000000       0.00000000
H        7.37248790       4.96062593      19.23653011  T        2       0.00259900       0.00837000       0.01477400       0.00259900       0.00837000       0.01477400
C        6.51749356       9.44366202      19.14303412  T        2      -0.01322400       0.01434200       0.00221600      -0.01322400       0.01434200       0.00221600
C       10.79516008       4.31723417      16.88064808  T        2       0.00500800      -0.01566400       0.00201800       0.00500800      -0.01566400       0.00201800
27
Lattice="8.694450378417969 0.0 5.323815419916867e-16 4.347225189208984 8.90892219543457 2.5098717212677 0.0 0.0 35.138206481933594" Properties=species:S:1:pos:R:3:move_mask:L:1:tags:I:1:DFT_forces:R:3:forces:R:3 DFT_energy=-79.89426426 energy=-79.89426426 pbc="T T T"
Sr       7.85419847       2.32730060      12.86230713  F        0       0.00000000       0.00000000       0.00000000       0.00000000       0.00000000       0.00000000
Sr       3.50697328       2.32730060      10.35243469  F        0       0.00000000       0.00000000       0.00000000       0.00000000       0.00000000       0.00000000
Sr       3.50697328       6.78176170      10.35243469  F        0       0.00000000       0.00000000       0.00000000       0.00000000       0.00000000       0.00000000
Sr       7.85419847       6.78176170      12.86230713  F        0       0.00000000       0.00000000       0.00000000       0.00000000       0.00000000       0.00000000
Ag       6.40512373       0.10006958      10.35243541  F        0       0.00000000       0.00000000       0.00000000       0.00000000       0.00000000       0.00000000
Ag       2.05789854       0.10006958       7.84256297  F        0       0.00000000       0.00000000       0.00000000       0.00000000       0.00000000       0.00000000
Ag       4.95604851       4.55453115      12.86230713  F        0       0.00000000       0.00000000       0.00000000       0.00000000       0.00000000       0.00000000
Ag       9.30327358       4.55453115      10.35243469  F        0       0.00000000       0.00000000       0.00000000       0.00000000       0.00000000       0.00000000
Bi      10.75234868       4.55453115      12.86230713  F        0       0.00000000       0.00000000       0.00000000       0.00000000       0.00000000       0.00000000
Bi       6.40512373       4.55453115      10.35243469  F        0       0.00000000       0.00000000       0.00000000       0.00000000       0.00000000       0.00000000
Bi       0.60882332       0.10006958      10.35243541  F        0       0.00000000       0.00000000       0.00000000       0.00000000       0.00000000       0.00000000
Bi       4.95604898       0.10006958       7.84256297  F        0       0.00000000       0.00000000       0.00000000       0.00000000       0.00000000       0.00000000
Sr       9.10266005       2.39336096      17.71370074  T        1      -0.00695000       0.00983600      -0.00087600      -0.00695000       0.00983600      -0.00087600
Sr       3.43945073       2.52355525      15.43150916  T        1      -0.00124400       0.00980200      -0.00050700      -0.00124400       0.00980200      -0.00050700
Sr       3.37908371       6.66995920      15.42329960  T        1       0.00537400      -0.00107200      -0.00202700       0.00537400      -0.00107200      -0.00202700
Sr       8.03489517       7.48687797      18.33587333  T        1      -0.00719000       0.00176700       0.00046900      -0.00719000       0.00176700       0.00046900
Ag      10.81899986       9.99103220      17.92813297  T        1      -0.01082800      -0.02699000      -0.00608500      -0.01082800      -0.02699000      -0.00608500
Ag       2.05789854       0.10006958      12.86230594  F        0       0.00000000       0.00000000       0.00000000       0.00000000       0.00000000       0.00000000
Ag       5.69487832       5.26860681      18.09816479  T        1       0.00951200       0.00464400       0.00653800       0.00951200       0.00464400       0.00653800
Ag       9.30327358       4.55453115      15.37217766  F        0       0.00000000       0.00000000       0.00000000       0.00000000       0.00000000       0.00000000
Bi      11.48016611       5.34476666      18.75770261  T        1       0.01087800       0.00731400       0.01454300       0.01087800       0.00731400       0.01454300
Bi       6.40512373       4.55453115      15.37217766  F        0       0.00000000       0.00000000       0.00000000       0.00000000       0.00000000       0.00000000
Bi       0.42930171      -0.28583641      15.42987179  T        1       0.00993900      -0.00369000      -0.00905800       0.00993900      -0.00369000      -0.00905800
Bi       4.95604898       0.10006958      12.86230594  F        0       0.00000000       0.00000000       0.00000000       0.00000000       0.00000000       0.00000000
H        7.00915191       5.40942101      19.29348026  T        2       0.01550400      -0.01229500      -0.00155300       0.01550400      -0.01229500      -0.00155300
C        6.40634553       9.57572406      19.10833139  T        2      -0.00367800      -0.00825700       0.01376800      -0.00367800      -0.00825700       0.01376800
C       10.74119768       4.42227315      16.95378971  T        2      -0.00729500       0.00508700      -0.00600900      -0.00729500       0.00508700      -0.00600900
27
Lattice="8.694450378417969 0.0 5.323815419916867e-16 4.347225189208984 8.90892219543457 2.5098717212677 0.0 0.0 35.138206481933594" Properties=species:S:1:pos:R:3:move_mask:L:1:tags:I:1:DFT_forces:R:3:forces:R:3 DFT_energy=-79.83946493 energy=-79.83946493 pbc="T T T"
Sr       7.85419847       2.32730060      12.86230713  F        0       0.00000000       0.00000000       0.00000000       0.00000000       0.00000000       0.00000000
Sr       3.50697328       2.32730060      10.35243469  F        0       0.00000000       0.00000000       0.00000000       0.00000000       0.00000000       0.00000000
Sr       3.50697328       6.78176170      10.35243469  F        0       0.00000000       0.00000000       0.00000000       0.00000000       0.00000000       0.00000000
Sr       7.85419847       6.78176170      12.86230713  F        0       0.00000000       0.00000000       0.00000000       0.00000000       0.00000000       0.00000000
Ag       6.40512373       0.10006958      10.35243541  F        0       0.00000000       0.00000000       0.00000000       0.00000000       0.00000000       0.00000000
Ag       2.05789854       0.10006958       7.84256297  F        0       0.00000000       0.00000000       0.00000000       0.00000000       0.00000000       0.00000000
Ag       4.95604851       4.55453115      12.86230713  F        0       0.00000000       0.00000000       0.00000000       0.00000000       0.00000000       0.00000000
Ag       9.30327358       4.55453115      10.35243469  F        0       0.00000000       0.00000000       0.00000000       0.00000000       0.00000000       0.00000000
Bi      10.75234868       4.55453115      12.86230713  F        0       0.00000000       0.00000000       0.00000000       0.00000000       0.00000000       0.00000000
Bi       6.40512373       4.55453115      10.35243469  F        0       0.00000000       0.00000000       0.00000000       0.00000000       0.00000000       0.00000000
Bi       0.60882332       0.10006958      10.35243541  F        0       0.00000000       0.00000000       0.00000000       0.00000000       0.00000000       0.00000000
Bi       4.95604898       0.10006958       7.84256297  F        0       0.00000000       0.00000000       0.00000000       0.00000000       0.00000000       0.00000000
Sr       9.28905409       2.31612712      17.76188036  T        1      -0.03557300       0.02665900       0.00207200      -0.03557300       0.02665900       0.00207200
Sr       3.44281033       2.48398651      15.33775321  T        1      -0.00995600       0.02113900       0.01651300      -0.00995600       0.02113900       0.01651300
Sr       3.35221282       6.66811100      15.39570001  T        1      -0.00082200      -0.00535700       0.00888100      -0.00082200      -0.00535700       0.00888100
Sr       8.00794647       7.42582260      18.25880046  T        1      -0.00156800       0.01665400       0.02140200      -0.00156800       0.01665400       0.02140200
Ag      10.95993658      10.32763069      18.11047210  T        1      -0.03628100      -0.04820200      -0.02558800      -0.03628100      -0.04820200      -0.02558800
Ag       2.05789854       0.10006958      12.86230594  F        0       0.00000000       0.00000000       0.00000000       0.00000000       0.00000000       0.00000000
Ag       5.61375224       5.26551477      18.05344477  T        1       0.02555800      -0.01017800       0.01641300       0.02555800      -0.01017800       0.01641300
Ag       9.30327358       4.55453115      15.37217766  F        0       0.00000000       0.00000000       0.00000000       0.00000000       0.00000000       0.00000000
Bi      11.39530662       5.37446752      18.72839495  T        1       0.01846200       0.00147900       0.00435100       0.01846200       0.00147900       0.00435100
Bi       6.40512373       4.55453115      15.37217766  F        0       0.00000000       0.00000000       0.00000000       0.00000000       0.00000000       0.00000000
Bi       0.37592572      -0.27190049      15.40588098  T        1       0.02731000       0.01477400       0.02651100       0.02731000       0.01477400       0.02651100
Bi       4.95604898       0.10006958      12.86230594  F        0       0.00000000       0.00000000       0.00000000       0.00000000       0.00000000       0.00000000
H        6.71458413       5.59580568      19.39501900  T        2       0.06276400      -0.06251500      -0.01343200       0.06276400      -0.06251500      -0.01343200
C        6.44887950       9.51187109      19.01454402  T        2      -0.02144600       0.00087700       0.02169400      -0.02144600       0.00087700       0.02169400
C       10.78482858       4.36841838      16.91103766  T        2       0.00629500       0.00646800      -0.00424000       0.00629500       0.00646800      -0.00424000
27
Lattice="8.694450378417969 0.0 5.323815419916867e-16 4.347225189208984 8.90892219543457 2.5098717212677 0.0 0.0 35.138206481933594" Properties=species:S:1:pos:R:3:move_mask:L:1:tags:I:1:DFT_forces:R:3:forces:R:3 DFT_energy=-79.73808931 energy=-79.73808931 pbc="T T T"
Sr       7.85419847       2.32730060      12.86230713  F        0       0.00000000       0.00000000       0.00000000       0.00000000       0.00000000       0.00000000
Sr       3.50697328       2.32730060      10.35243469  F        0       0.00000000       0.00000000       0.00000000       0.00000000       0.00000000       0.00000000
Sr       3.50697328       6.78176170      10.35243469  F        0       0.00000000       0.00000000       0.00000000       0.00000000       0.00000000       0.00000000
Sr       7.85419847       6.78176170      12.86230713  F        0       0.00000000       0.00000000       0.00000000       0.00000000       0.00000000       0.00000000
Ag       6.40512373       0.10006958      10.35243541  F        0       0.00000000       0.00000000       0.00000000       0.00000000       0.00000000       0.00000000
Ag       2.05789854       0.10006958       7.84256297  F        0       0.00000000       0.00000000       0.00000000       0.00000000       0.00000000       0.00000000
Ag       4.95604851       4.55453115      12.86230713  F        0       0.00000000       0.00000000       0.00000000       0.00000000       0.00000000       0.00000000
Ag       9.30327358       4.55453115      10.35243469  F        0       0.00000000       0.00000000       0.00000000       0.00000000       0.00000000       0.00000000
Bi      10.75234868       4.55453115      12.86230713  F        0       0.00000000       0.00000000       0.00000000       0.00000000       0.00000000       0.00000000
Bi       6.40512373       4.55453115      10.35243469  F        0       0.00000000       0.00000000       0.00000000       0.00000000       0.00000000       0.00000000
Bi       0.60882332       0.10006958      10.35243541  F        0       0.00000000       0.00000000       0.00000000       0.00000000       0.00000000       0.00000000
Bi       4.95604898       0.10006958       7.84256297  F        0       0.00000000       0.00000000       0.00000000       0.00000000       0.00000000       0.00000000
Sr       9.45129531       2.20651950      17.78741965  T        1      -0.03249700       0.04664600       0.01458200      -0.03249700       0.04664600       0.01458200
Sr       3.47973127       2.44074468      15.27023395  T        1       0.00407800       0.03586100       0.01199800       0.00407800       0.03586100       0.01199800
Sr       3.33731569       6.64958292      15.37366065  T        1      -0.00230400       0.01370400       0.00727000      -0.00230400       0.01370400       0.00727000
Sr       8.04430093       7.37377823      18.17649531  T        1      -0.03135700       0.02420600       0.04386100      -0.03135700       0.02420600       0.04386100
Ag      11.11957789      10.50058816      18.25895147  T        1      -0.02235700      -0.01348900      -0.01244900      -0.02235700      -0.01348900      -0.01244900
Ag       2.05789854       0.10006958      12.86230594  F        0       0.00000000       0.00000000       0.00000000       0.00000000       0.00000000       0.00000000
Ag       5.56199308       5.32171690      18.03041133  T        1       0.00975600      -0.06810200      -0.02707300       0.00975600      -0.06810200      -0.02707300
Ag       9.30327358       4.55453115      15.37217766  F        0       0.00000000       0.00000000       0.00000000       0.00000000       0.00000000       0.00000000
Bi      11.34783789       5.31254487      18.70492527  T        1       0.02265900       0.03088600       0.03421100       0.02265900       0.03088600       0.03421100
Bi       6.40512373       4.55453115      15.37217766  F        0       0.00000000       0.00000000       0.00000000       0.00000000       0.00000000       0.00000000
Bi       0.34215983      -0.27918489      15.38215567  T        1       0.03941600       0.00526800       0.02558300       0.03941600       0.00526800       0.02558300
Bi       4.95604898       0.10006958      12.86230594  F        0       0.00000000       0.00000000       0.00000000       0.00000000       0.00000000       0.00000000
H        6.46511848       5.89389754      19.41444052  T        2       0.09852600      -0.18320900       0.04309300       0.09852600      -0.18320900       0.04309300
C        6.49679736       9.44110767      18.90405474  T        2      -0.01834600       0.03271100       0.01844700      -0.01834600       0.03271100       0.01844700
C       10.82085714       4.28143472      16.86898006  T        2       0.00200200       0.03487300       0.00180000       0.00200200       0.03487300       0.00180000
27
Lattice="8.694450378417969 0.0 5.323815419916867e-16 4.347225189208984 8.90892219543457 2.5098717212677 0.0 0.0 35.138206481933594" Properties=species:S:1:pos:R:3:move_mask:L:1:tags:I:1:DFT_forces:R:3:forces:R:3 DFT_energy=-79.54849745 energy=-79.54849745 pbc="T T T"
Sr       7.85419847       2.32730060      12.86230713  F        0       0.00000000       0.00000000       0.00000000       0.00000000       0.00000000       0.00000000
Sr       3.50697328       2.32730060      10.35243469  F        0       0.00000000       0.00000000       0.00000000       0.00000000       0.00000000       0.00000000
Sr       3.50697328       6.78176170      10.35243469  F        0       0.00000000       0.00000000       0.00000000       0.00000000       0.00000000       0.00000000
Sr       7.85419847       6.78176170      12.86230713  F        0       0.00000000       0.00000000       0.00000000       0.00000000       0.00000000       0.00000000
Ag       6.40512373       0.10006958      10.35243541  F        0       0.00000000       0.00000000       0.00000000       0.00000000       0.00000000       0.00000000
Ag       2.05789854       0.10006958       7.84256297  F        0       0.00000000       0.00000000       0.00000000       0.00000000       0.00000000       0.00000000
Ag       4.95604851       4.55453115      12.86230713  F        0       0.00000000       0.00000000       0.00000000       0.00000000       0.00000000       0.00000000
Ag       9.30327358       4.55453115      10.35243469  F        0       0.00000000       0.00000000       0.00000000       0.00000000       0.00000000       0.00000000
Bi      10.75234868       4.55453115      12.86230713  F        0       0.00000000       0.00000000       0.00000000       0.00000000       0.00000000       0.00000000
Bi       6.40512373       4.55453115      10.35243469  F        0       0.00000000       0.00000000       0.00000000       0.00000000       0.00000000       0.00000000
Bi       0.60882332       0.10006958      10.35243541  F        0       0.00000000       0.00000000       0.00000000       0.00000000       0.00000000       0.00000000
Bi       4.95604898       0.10006958       7.84256297  F        0       0.00000000       0.00000000       0.00000000       0.00000000       0.00000000       0.00000000
Sr       9.52028960       2.11340129      17.78690379  T        1      -0.02093200       0.07510500       0.01782200      -0.02093200       0.07510500       0.01782200
Sr       3.47939018       2.38117605      15.24337284  T        1       0.02316100       0.07485300       0.00560300       0.02316100       0.07485300       0.00560300
Sr       3.34783880       6.61141357      15.36313955  T        1      -0.02854100       0.03284900      -0.00400000      -0.02854100       0.03284900      -0.00400000
Sr       8.10099137       7.29483939      18.08191664  T        1      -0.07624100       0.07450100       0.09029300      -0.07624100       0.07450100       0.09029300
Ag      11.15032846      10.55761925      18.28924122  T        1       0.00860300      -0.03165900      -0.00489400       0.00860300      -0.03165900      -0.00489400
Ag       2.05789854       0.10006958      12.86230594  F        0       0.00000000       0.00000000       0.00000000       0.00000000       0.00000000       0.00000000
Ag       5.50841524       5.41109668      18.04171860  T        1       0.01702400      -0.08219700      -0.09372600       0.01702400      -0.08219700      -0.09372600
Ag       9.30327358       4.55453115      15.37217766  F        0       0.00000000       0.00000000       0.00000000       0.00000000       0.00000000       0.00000000
Bi      11.30849486       5.25638518      18.68310477  T        1      -0.00035500       0.03277200       0.01849800      -0.00035500       0.03277200       0.01849800
Bi       6.40512373       4.55453115      15.37217766  F        0       0.00000000       0.00000000       0.00000000       0.00000000       0.00000000       0.00000000
Bi       0.31798504      -0.26885858      15.33401611  T        1       0.03269100      -0.03306000       0.06560700       0.03269100      -0.03306000       0.06560700
Bi       4.95604898       0.10006958      12.86230594  F        0       0.00000000       0.00000000       0.00000000       0.00000000       0.00000000       0.00000000
H        6.28089253       6.26047831      19.36420771  T        2       0.07924800      -0.41691800       0.07611800       0.07924800      -0.41691800       0.07611800
C        6.50857101       9.33099900      18.86892768  T        2       0.03103300       0.20452200      -0.06905700       0.03103300       0.20452200      -0.06905700
C       10.84935563       4.19536586      16.83242608  T        2      -0.02060300       0.05904000       0.03135600      -0.02060300       0.05904000       0.03135600
27
Lattice="8.694450378417969 0.0 5.323815419916867e-16 4.347225189208984 8.90892219543457 2.5098717212677 0.0 0.0 35.138206481933594" Properties=species:S:1:pos:R:3:move_mask:L:1:tags:I:1:DFT_forces:R:3:forces:R:3 DFT_energy=-79.23399568 energy=-79.23399568 pbc="T T T"
Sr       7.85419847       2.32730060      12.86230713  F        0       0.00000000       0.00000000       0.00000000       0.00000000       0.00000000       0.00000000
Sr       3.50697328       2.32730060      10.35243469  F        0       0.00000000       0.00000000       0.00000000       0.00000000       0.00000000       0.00000000