89
Lattice="12.514668464660645 0.0 1.1799098253250122 0.43566635251045227 10.414403915405273 1.6649439334869385 0.0 0.0 31.89472007751465" Properties=species:S:1:pos:R:3:move_mask:L:1:tags:I:1:DFT_forces:R:3:forces:R:3:magmoms:R:1 DFT_energy=-555.28987031 energy=-555.28987031 dipole="_JSON [[0.0, 0.0, 0.0]]" magmom=0.0 free_energy=-555.30191457 pbc="T T T"
Cr      12.67618069       4.35598037      10.40992320  F        0       0.00000000       0.00000000       0.00000000      -0.01667900      -0.09957300      -0.41563900       0.00000000
Cr       9.47426343      10.08390257       9.40643108  F        0       0.00000000       0.00000000       0.00000000       0.60187700      -0.36558700       1.22131700       0.00000000
Cr       0.85698521       8.32449171       8.66772723  F        0       0.00000000       0.00000000       0.00000000      -1.03414900      -0.60670000       0.84146200       0.00000000
Cr      10.31623682       2.59656951      10.26117480  F        0       0.00000000       0.00000000       0.00000000       0.33419100      -0.07283500      -0.42538300       0.00000000
Cr       0.74367889       3.31453988      12.31198740  F        0       0.00000000       0.00000000       0.00000000      -0.70288100       0.26711000       0.01850000       0.00000000
Cr      10.05643022       9.04246220      12.48840416  F        0       0.00000000       0.00000000       0.00000000      -0.34882200       0.01089000       0.28064400       0.00000000
Cr       1.43915188       7.28305133      11.74970126  F        0       0.00000000       0.00000000       0.00000000       0.51286000       0.27050400       0.27544200       0.00000000
Cr      10.89840349       1.55512902      13.34314692  F        0       0.00000000       0.00000000       0.00000000      -0.09877300       0.27569500       0.64448500       0.00000000
Cr       7.12527261       2.46303957      15.61971510  T        1       0.01208200      -0.01025300      -0.02749000       0.01208200      -0.01025300      -0.02749000       0.00000000
Cr      10.55327854       8.01433056      15.50305067  T        1       0.00030400       0.00030900       0.00963800       0.00030400       0.00030900       0.00963800       0.00000000
Cr       8.41043552       6.44709707      15.18122547  T        1       0.00831400       0.00126100       0.00145500       0.00831400       0.00126100       0.00145500       0.00000000
Cr      11.23834185       0.67465742      15.81310708  T        1       0.01426000      -0.00625400       0.01107100       0.01426000      -0.00625400       0.01107100       0.00000000
S        9.14500117       7.89925423      10.50233352  F        0       0.00000000       0.00000000       0.00000000      -0.17605500      -0.03811500      -0.52627400       0.00000000
S       11.76475176       3.21277234       8.42385257  F        0       0.00000000       0.00000000       0.00000000       0.54172600      -0.75327200      -0.16244700       0.00000000
S        8.38891992       3.10234925       9.02421439  F        0       0.00000000       0.00000000       0.00000000       0.08830600      -0.29122100      -0.87187300       0.00000000
S       11.44433677       8.83027169       8.61067760  F        0       0.00000000       0.00000000       0.00000000      -0.00057600       0.68204400       0.11674300       0.00000000
S        0.79204449       6.10289952       7.92928839  F        0       0.00000000       0.00000000       0.00000000       0.21661500       0.61592700       0.33542700       0.00000000
S       10.25129613       0.37497756       9.52273524  F        0       0.00000000       0.00000000       0.00000000       0.03418600       0.50345400      -0.25324600       0.00000000
S        9.96204528       5.85707852       7.88599170  F        0       0.00000000       0.00000000       0.00000000       1.41265500       0.68190100       1.34547600       0.00000000
S        0.64929422       0.12915632       7.70957327  F        0       0.00000000       0.00000000       0.00000000      -0.13445800       0.05148000      -1.11664000       0.00000000
S        9.72716793       6.85781380      13.58430636  F        0       0.00000000       0.00000000       0.00000000       0.94368700      -0.25929400      -1.32059000       0.00000000
S       12.34691843       2.17133185      11.50582660  F        0       0.00000000       0.00000000       0.00000000       0.02171500      -0.42948600      -0.12557100       0.00000000
S        8.97108671       2.06090876      12.10618747  F        0       0.00000000       0.00000000       0.00000000      -0.23663200       0.13784400       0.13598400       0.00000000
S       12.02650368       7.78883132      11.69265068  F        0       0.00000000       0.00000000       0.00000000       0.27137900       0.63025200       0.09341900       0.00000000
S        1.37421116       5.06145856      11.01126147  F        0       0.00000000       0.00000000       0.00000000       0.14874100       0.47999800       0.04462800       0.00000000
S       11.26912915       9.74794099      14.26965320  F        0       0.00000000       0.00000000       0.00000000       0.14932800       0.33350300      -0.00077200       0.00000000
S       10.54421195       4.81563803      10.96796382  F        0       0.00000000       0.00000000       0.00000000      -0.36729300      -0.30491200      -0.01428300       0.00000000
S        7.92446152       9.50211999      13.04644573  F        0       0.00000000       0.00000000       0.00000000      -0.46052700      -0.34845300      -0.06855400       0.00000000
S       10.20298355       5.81257122      16.60545672  T        1       0.00364200       0.00268500       0.00347900       0.00364200       0.00268500       0.00347900       0.00000000
S        0.41441664       1.12989136      13.40788889  F        0       0.00000000       0.00000000       0.00000000      -0.32366900      -0.35005600      -1.08451300       0.00000000
S        9.28992414       1.24990903      15.13038328  T        1      -0.01159500       0.00217400       0.00495500      -0.01159500       0.00217400       0.00495500       0.00000000
S       12.60867008       6.74739072      14.77462352  F        0       0.00000000       0.00000000       0.00000000      -0.65317500       0.53747600       0.34245200       0.00000000
S        8.13437640       4.23777169      14.68452523  T        1      -0.00181300      -0.00365300      -0.01222900      -0.00181300      -0.00365300      -0.01222900       0.00000000
S       11.57782334       8.96856346      17.44809967  T        1       0.00427300      -0.00462200      -0.00233700       0.00427300      -0.00462200      -0.00233700       0.00000000
S       11.03265038       3.73664899      13.95075888  T        1      -0.00834200      -0.00764300      -0.00179700      -0.00834200      -0.00764300      -0.00179700       0.00000000
S        8.47596950       8.48135919      16.26089819  T        1       0.00174700      -0.00135200      -0.00096600       0.00174700      -0.00135200      -0.00096600       0.00000000
V       11.15287789       6.62854096       9.69366610  F        0       0.00000000       0.00000000       0.00000000      -1.45493900      -1.09911800      -2.09147000       0.00000000
V        1.25796017       1.94205901       6.43527556  F        0       0.00000000       0.00000000       0.00000000      -0.12796200      -0.30348000       3.44368400       0.00000000
V       11.73504480       5.58710000      12.77564013  F        0       0.00000000       0.00000000       0.00000000       0.37718500      -0.30430800      -0.19565500       0.00000000
V        8.09746119       0.90061900      10.10720408  F        0       0.00000000       0.00000000       0.00000000       0.24147100       0.20760800      -0.57300300       0.00000000
V       12.16504837       4.47555420      15.70746160  T        1      -0.00698300      -0.01897400       0.00367800      -0.00698300      -0.01897400       0.00367800       0.00000000
V        9.11841450      10.20250589      14.86055078  T        1      -0.00243300      -0.01643800      -0.01319600      -0.00243300      -0.01643800      -0.01319600       0.00000000
Cr       6.41884645       4.35598037       9.81996775  F        0       0.00000000       0.00000000       0.00000000      -0.03027100      -0.15668800      -0.37587500       0.00000000
Cr       3.21692907      10.08390257       8.81647659  F        0       0.00000000       0.00000000       0.00000000       0.62127400      -0.37194900       1.22042300       0.00000000
Cr       7.11431944       8.32449171       9.25768256  F        0       0.00000000       0.00000000       0.00000000      -1.01052600      -0.60015600       0.79050900       0.00000000
Cr       4.05890211       2.59656951       9.67121935  F        0       0.00000000       0.00000000       0.00000000       0.35278200      -0.11204900      -0.27964700       0.00000000
Cr       7.00101313       3.31453988      12.90194178  F        0       0.00000000       0.00000000       0.00000000      -0.97523400       0.45772800       0.27692600       0.00000000
Cr       3.79909575       9.04246220      11.89844966  F        0       0.00000000       0.00000000       0.00000000      -0.36689300       0.02317100       0.38951300       0.00000000
Cr       7.69648611       7.28305133      12.33965564  F        0       0.00000000       0.00000000       0.00000000       0.56023400       0.16096700       0.32903000       0.00000000
Cr       4.64106878       1.55512902      12.75319338  F        0       0.00000000       0.00000000       0.00000000      -0.02819200       0.49028300       0.41705400       0.00000000
Cr       0.81418884       2.60844656      14.97771889  T        1      -0.03433000       0.02124500       0.01175400      -0.03433000       0.02124500       0.01175400       0.00000000
Cr       4.27393506       8.00555323      14.87487282  T        1      -0.01113500       0.00612300      -0.00515900      -0.01113500       0.00612300      -0.00515900       0.00000000
Cr       2.11193622       6.45479696      14.56632375  T        1      -0.01237800      -0.00415900      -0.00718300      -0.01237800      -0.00415900      -0.00718300       0.00000000
Cr       5.05902463       0.71153159      15.35904258  T        1      -0.00781100      -0.00694200       0.00065800      -0.00781100      -0.00694200       0.00065800       0.00000000
S        2.88766682       7.89925423       9.91237903  F        0       0.00000000       0.00000000       0.00000000      -0.15054600      -0.01513800      -0.53574500       0.00000000
S        5.50741705       3.21277234       7.83389807  F        0       0.00000000       0.00000000       0.00000000       0.53835500      -0.73994400      -0.17322300       0.00000000
S        2.13158544       3.10234925       8.43425989  F        0       0.00000000       0.00000000       0.00000000       0.07978000      -0.29030300      -0.86662000       0.00000000
S        5.18700277       8.83027169       8.02072215  F        0       0.00000000       0.00000000       0.00000000      -0.00680500       0.68877100       0.13464800       0.00000000
S        7.04937872       6.10289952       8.51924372  F        0       0.00000000       0.00000000       0.00000000       0.22302900       0.64502600       0.32946000       0.00000000
S        3.99396166       0.37497756       8.93278075  F        0       0.00000000       0.00000000       0.00000000       0.02054500       0.49351800      -0.28007300       0.00000000
S        3.70471128       5.85707852       7.29603625  F        0       0.00000000       0.00000000       0.00000000       1.41173400       0.68243400       1.34478800       0.00000000
S        6.90662798       0.12915632       8.29952860  F        0       0.00000000       0.00000000       0.00000000      -0.13824300       0.04091300      -1.11614400       0.00000000
S        3.46983370       6.85781380      12.99435282  F        0       0.00000000       0.00000000       0.00000000       0.92143400      -0.27921300      -1.26380900       0.00000000
S        6.08958372       2.17133185      10.91587115  F        0       0.00000000       0.00000000       0.00000000       0.09472800      -0.37102500      -0.14780400       0.00000000
S        2.71375212       2.06090876      11.51623202  F        0       0.00000000       0.00000000       0.00000000      -0.17090400       0.19756500       0.17294400       0.00000000
S        5.76916945       7.78883132      11.10269523  F        0       0.00000000       0.00000000       0.00000000       0.23522400       0.62403000       0.07579300       0.00000000
S        7.63154539       5.06145856      11.60121584  F        0       0.00000000       0.00000000       0.00000000       0.17363300       0.49116000       0.06420700       0.00000000
S        5.01179468       9.74794099      13.67969775  F        0       0.00000000       0.00000000       0.00000000       0.28530600       0.56769300       0.09885400       0.00000000
S        4.28687796       4.81563803      10.37801028  F        0       0.00000000       0.00000000       0.00000000      -0.35336100      -0.28497800      -0.00056900       0.00000000
S        1.66712725       9.50211999      12.45649028  F        0       0.00000000       0.00000000       0.00000000      -0.42452800      -0.32627800      -0.00961400       0.00000000
S        3.89066527       5.85557070      15.99020632  T        1       0.00479400       0.00145000      -0.00384400       0.00479400       0.00145000      -0.00384400       0.00000000
S        6.67175039       1.12989136      13.99784327  F        0       0.00000000       0.00000000       0.00000000      -0.25567200      -0.93285800      -1.75781000       0.00000000
S        3.12467135       1.25438626      14.54514245  T        1       0.02411700      -0.01237500       0.01431800       0.02411700      -0.01237500       0.01431800       0.00000000
S        6.35133585       6.74739072      14.18466807  F        0       0.00000000       0.00000000       0.00000000      -0.36598300       0.48197200       0.61174800       0.00000000
S        1.92894421       4.25753491      14.05682722  T        1      -0.00436900      -0.00597600       0.00917600      -0.00436900      -0.00597600       0.00917600       0.00000000
S        5.28018303       8.99335141      17.04943364  T        1       0.01989800       0.01149100       0.01985800       0.01989800       0.01149100       0.01985800       0.00000000
S        4.80699431       3.74833147      13.40296409  T        1      -0.00925700      -0.00145200       0.01102900      -0.00925700      -0.00145200       0.01102900       0.00000000
S        2.23063529       8.49933583      15.67258800  T        1       0.00905200      -0.00841900       0.01190900       0.00905200      -0.00841900       0.01190900       0.00000000
V        4.89554342       6.62854096       9.10371161  F        0       0.00000000       0.00000000       0.00000000      -1.43855700      -1.07911400      -2.07872600       0.00000000
V        7.51529440       1.94205901       7.02523089  F        0       0.00000000       0.00000000       0.00000000      -0.11908100      -0.29896300       3.44153800       0.00000000
V        5.47771009       5.58710000      12.18568468  F        0       0.00000000       0.00000000       0.00000000       0.32001100      -0.40145900      -0.13527900       0.00000000
V        1.84012684       0.90061900       9.51724863  F        0       0.00000000       0.00000000       0.00000000       0.23393500       0.20450000      -0.57954700       0.00000000
V        5.89444816       4.57723408      15.19703561  T        1       0.01833300      -0.00460400      -0.00212900       0.01833300      -0.00460400      -0.00212900       0.00000000
V        2.86816503      10.21213193      14.27451182  T        1      -0.00585900      -0.00991800      -0.00836300      -0.00585900      -0.00991800      -0.00836300       0.00000000
H        5.88098202       5.94235652      17.65104383  T        2       0.01536900       0.00661500      -0.00247500       0.01536900       0.00661500      -0.00247500       0.00000000
H        7.37753459       5.44334947      17.63057386  T        2       0.00904100      -0.01297800      -0.02221700       0.00904100      -0.01297800      -0.02221700       0.00000000
O        6.46347171       5.20419864      17.36792577  T        2      -0.01803100       0.00156800      -0.00846700      -0.01803100       0.00156800      -0.00846700       0.00000000
C        5.67267038       1.95322199      16.66769419  T        2      -0.02097600       0.01683700      -0.01300900      -0.02097600       0.01683700      -0.01300900       0.00000000
H        5.33069110       2.12248994      17.70719472  T        2       0.01354800       0.01535900       0.02717800       0.01354800       0.01535900       0.02717800       0.00000000
89
Lattice="12.514668464660645 0.0 1.1799098253250122 0.43566635251045227 10.414403915405273 1.6649439334869385 0.0 0.0 31.89472007751465" Properties=species:S:1:pos:R:3:move_mask:L:1:tags:I:1:DFT_forces:R:3:forces:R:3 DFT_energy=-555.18445956 energy=-555.18445956 pbc="T T T"
Cr      12.67618069       4.35598037      10.40992320  F        0       0.00000000       0.00000000       0.00000000       0.00000000       0.00000000       0.00000000
Cr       9.47426343      10.08390257       9.40643108  F        0       0.00000000       0.00000000       0.00000000       0.00000000       0.00000000       0.00000000
Cr       0.85698521       8.32449171       8.66772723  F        0       0.00000000       0.00000000       0.00000000       0.00000000       0.00000000       0.00000000
Cr      10.31623682       2.59656951      10.26117480  F        0       0.00000000       0.00000000       0.00000000       0.00000000       0.00000000       0.00000000
Cr       0.74367889       3.31453988      12.31198740  F        0       0.00000000       0.00000000       0.00000000       0.00000000       0.00000000       0.00000000
Cr      10.05643022       9.04246220      12.48840416  F        0       0.00000000       0.00000000       0.00000000       0.00000000       0.00000000       0.00000000
Cr       1.43915188       7.28305133      11.74970126  F        0       0.00000000       0.00000000       0.00000000       0.00000000       0.00000000       0.00000000
Cr      10.89840349       1.55512902      13.34314692  F        0       0.00000000       0.00000000       0.00000000       0.00000000       0.00000000       0.00000000
Cr       7.18101757       2.43835744      15.61979529  T        1       0.00825000      -0.00003500      -0.01113000       0.00825000      -0.00003500      -0.01113000
Cr      10.56418265       8.01694727      15.51407835  T        1      -0.00105800      -0.00115400       0.00738100      -0.00105800      -0.00115400       0.00738100
Cr       8.43301866       6.43616340      15.20868234  T        1      -0.00573500      -0.00259100       0.00328600      -0.00573500      -0.00259100       0.00328600
Cr      11.24115224       0.67876608      15.81591991  T        1      -0.00248400      -0.00248800      -0.00541500      -0.00248400      -0.00248800      -0.00541500
S        9.14500117       7.89925423      10.50233352  F        0       0.00000000       0.00000000       0.00000000       0.00000000       0.00000000       0.00000000
S       11.76475176       3.21277234       8.42385257  F        0       0.00000000       0.00000000       0.00000000       0.00000000       0.00000000       0.00000000
S        8.38891992       3.10234925       9.02421439  F        0       0.00000000       0.00000000       0.00000000       0.00000000       0.00000000       0.00000000
S       11.44433677       8.83027169       8.61067760  F        0       0.00000000       0.00000000       0.00000000       0.00000000       0.00000000       0.00000000
S        0.79204449       6.10289952       7.92928839  F        0       0.00000000       0.00000000       0.00000000       0.00000000       0.00000000       0.00000000
S       10.25129613       0.37497756       9.52273524  F        0       0.00000000       0.00000000       0.00000000       0.00000000       0.00000000       0.00000000
S        9.96204528       5.85707852       7.88599170  F        0       0.00000000       0.00000000       0.00000000       0.00000000       0.00000000       0.00000000
S        0.64929422       0.12915632       7.70957327  F        0       0.00000000       0.00000000       0.00000000       0.00000000       0.00000000       0.00000000
S        9.72716793       6.85781380      13.58430636  F        0       0.00000000       0.00000000       0.00000000       0.00000000       0.00000000       0.00000000
S       12.34691843       2.17133185      11.50582660  F        0       0.00000000       0.00000000       0.00000000       0.00000000       0.00000000       0.00000000
S        8.97108671       2.06090876      12.10618747  F        0       0.00000000       0.00000000       0.00000000       0.00000000       0.00000000       0.00000000
S       12.02650368       7.78883132      11.69265068  F        0       0.00000000       0.00000000       0.00000000       0.00000000       0.00000000       0.00000000
S        1.37421116       5.06145856      11.01126147  F        0       0.00000000       0.00000000       0.00000000       0.00000000       0.00000000       0.00000000
S       11.26912915       9.74794099      14.26965320  F        0       0.00000000       0.00000000       0.00000000       0.00000000       0.00000000       0.00000000
S       10.54421195       4.81563803      10.96796382  F        0       0.00000000       0.00000000       0.00000000       0.00000000       0.00000000       0.00000000
S        7.92446152       9.50211999      13.04644573  F        0       0.00000000       0.00000000       0.00000000       0.00000000       0.00000000       0.00000000
S       10.23910807       5.80774838      16.59117375  T        1      -0.00050800       0.00061900      -0.00201500      -0.00050800       0.00061900      -0.00201500
S        0.41441664       1.12989136      13.40788889  F        0       0.00000000       0.00000000       0.00000000       0.00000000       0.00000000       0.00000000
S        9.29093233       1.24923298      15.12718955  T        1      -0.00161900       0.00282700      -0.00388200      -0.00161900       0.00282700      -0.00388200
S       12.60867008       6.74739072      14.77462352  F        0       0.00000000       0.00000000       0.00000000       0.00000000       0.00000000       0.00000000
S        8.12276861       4.24076132      14.68681323  T        1       0.00428600      -0.00324100       0.00232000       0.00428600      -0.00324100       0.00232000
S       11.58585900       8.96920917      17.44215726  T        1      -0.00047600      -0.00413000      -0.00004000      -0.00047600      -0.00413000      -0.00004000
S       11.03185788       3.73776187      13.94792237  T        1      -0.00082000      -0.00797200       0.00128400      -0.00082000      -0.00797200       0.00128400
S        8.47661062       8.48180434      16.25513729  T        1       0.00005600      -0.00056300       0.00185100       0.00005600      -0.00056300       0.00185100
V       11.15287789       6.62854096       9.69366610  F        0       0.00000000       0.00000000       0.00000000       0.00000000       0.00000000       0.00000000
V        1.25796017       1.94205901       6.43527556  F        0       0.00000000       0.00000000       0.00000000       0.00000000       0.00000000       0.00000000
V       11.73504480       5.58710000      12.77564013  F        0       0.00000000       0.00000000       0.00000000       0.00000000       0.00000000       0.00000000
V        8.09746119       0.90061900      10.10720408  F        0       0.00000000       0.00000000       0.00000000       0.00000000       0.00000000       0.00000000
V       12.16643514       4.48365042      15.70053173  T        1      -0.00166800       0.01024800       0.00205600      -0.00166800       0.01024800       0.00205600
V        9.11836657      10.19837826      14.85633183  T        1      -0.00043200       0.00174300       0.00278400      -0.00043200       0.00174300       0.00278400
Cr       6.41884645       4.35598037       9.81996775  F        0       0.00000000       0.00000000       0.00000000       0.00000000       0.00000000       0.00000000
Cr       3.21692907      10.08390257       8.81647659  F        0       0.00000000       0.00000000       0.00000000       0.00000000       0.00000000       0.00000000
Cr       7.11431944       8.32449171       9.25768256  F        0       0.00000000       0.00000000       0.00000000       0.00000000       0.00000000       0.00000000
Cr       4.05890211       2.59656951       9.67121935  F        0       0.00000000       0.00000000       0.00000000       0.00000000       0.00000000       0.00000000
Cr       7.00101313       3.31453988      12.90194178  F        0       0.00000000       0.00000000       0.00000000       0.00000000       0.00000000       0.00000000
Cr       3.79909575       9.04246220      11.89844966  F        0       0.00000000       0.00000000       0.00000000       0.00000000       0.00000000       0.00000000
Cr       7.69648611       7.28305133      12.33965564  F        0       0.00000000       0.00000000       0.00000000       0.00000000       0.00000000       0.00000000
Cr       4.64106878       1.55512902      12.75319338  F        0       0.00000000       0.00000000       0.00000000       0.00000000       0.00000000       0.00000000
Cr       0.82109133       2.59748579      14.97573662  T        1       0.01270700       0.00039100      -0.00150800       0.01270700       0.00039100      -0.00150800
Cr       4.25654232       7.95458086      14.77199358  T        1      -0.01535400      -0.01567600      -0.02689000      -0.01535400      -0.01567600      -0.02689000
Cr       2.07656437       6.45560257      14.54169628  T        1      -0.02354500       0.00017900       0.00223000      -0.02354500       0.00017900       0.00223000
Cr       5.09806048       0.75164997      15.42120072  T        1       0.00141500       0.00253100       0.00027300       0.00141500       0.00253100       0.00027300
S        2.88766682       7.89925423       9.91237903  F        0       0.00000000       0.00000000       0.00000000       0.00000000       0.00000000       0.00000000
S        5.50741705       3.21277234       7.83389807  F        0       0.00000000       0.00000000       0.00000000       0.00000000       0.00000000       0.00000000
S        2.13158544       3.10234925       8.43425989  F        0       0.00000000       0.00000000       0.00000000       0.00000000       0.00000000       0.00000000
S        5.18700277       8.83027169       8.02072215  F        0       0.00000000       0.00000000       0.00000000       0.00000000       0.00000000       0.00000000
S        7.04937872       6.10289952       8.51924372  F        0       0.00000000       0.00000000       0.00000000       0.00000000       0.00000000       0.00000000
S        3.99396166       0.37497756       8.93278075  F        0       0.00000000       0.00000000       0.00000000       0.00000000       0.00000000       0.00000000
S        3.70471128       5.85707852       7.29603625  F        0       0.00000000       0.00000000       0.00000000       0.00000000       0.00000000       0.00000000
S        6.90662798       0.12915632       8.29952860  F        0       0.00000000       0.00000000       0.00000000       0.00000000       0.00000000       0.00000000
S        3.46983370       6.85781380      12.99435282  F        0       0.00000000       0.00000000       0.00000000       0.00000000       0.00000000       0.00000000
S        6.08958372       2.17133185      10.91587115  F        0       0.00000000       0.00000000       0.00000000       0.00000000       0.00000000       0.00000000
S        2.71375212       2.06090876      11.51623202  F        0       0.00000000       0.00000000       0.00000000       0.00000000       0.00000000       0.00000000
S        5.76916945       7.78883132      11.10269523  F        0       0.00000000       0.00000000       0.00000000       0.00000000       0.00000000       0.00000000
S        7.63154539       5.06145856      11.60121584  F        0       0.00000000       0.00000000       0.00000000       0.00000000       0.00000000       0.00000000
S        5.01179468       9.74794099      13.67969775  F        0       0.00000000       0.00000000       0.00000000       0.00000000       0.00000000       0.00000000
S        4.28687796       4.81563803      10.37801028  F        0       0.00000000       0.00000000       0.00000000       0.00000000       0.00000000       0.00000000
S        1.66712725       9.50211999      12.45649028  F        0       0.00000000       0.00000000       0.00000000       0.00000000       0.00000000       0.00000000
S        3.89195955       5.88260328      15.96218685  T        1      -0.00428400       0.00365500       0.00335200      -0.00428400       0.00365500       0.00335200
S        6.67175039       1.12989136      13.99784327  F        0       0.00000000       0.00000000       0.00000000       0.00000000       0.00000000       0.00000000
S        3.14005412       1.23594301      14.57121135  T        1      -0.00693300      -0.00026700      -0.00201500      -0.00693300      -0.00026700      -0.00201500
S        6.35133585       6.74739072      14.18466807  F        0       0.00000000       0.00000000       0.00000000       0.00000000       0.00000000       0.00000000
S        1.93298514       4.25542306      14.06922211  T        1       0.00229200       0.00168800      -0.00108400       0.00229200       0.00168800      -0.00108400
S        5.42382658       9.11519939      17.36336930  T        1       0.00908700       0.03393100       0.03562000       0.00908700       0.03393100       0.03562000