86
Lattice="10.386738777160645 -7.788806760638864e-32 -6.360043234456664e-16 -2.596684694290161 14.468005180358887 2.596684694290161 -0.0 3.816026152432235e-15 31.16021728515625" Properties=species:S:1:pos:R:3:move_mask:L:1:tags:I:1:DFT_forces:R:3:forces:R:3:magmoms:R:1 DFT_energy=-410.24495788 energy=-410.24495788 dipole="_JSON [[0.0, 0.0, 0.0]]" magmom=0.0 free_energy=-410.24837687 pbc="T T T"
K       -1.01135839      11.46591917      11.37379852  F        0       0.00000000       0.00000000       0.00000000       0.00047100       0.05299800       0.46140400       0.00000000
K        1.58472668      11.60047654      15.28027191  T        1      -0.00593800      -0.00789500       0.01760300      -0.00593800      -0.00789500       0.01760300       0.00000000
K        1.58532624       4.23191658      11.37379852  F        0       0.00000000       0.00000000       0.00000000      -0.00726500      -0.05856900       0.55524400       0.00000000
K        4.18420995       3.88149898      14.88528853  T        1      -0.00671700       0.00924200       0.00135800      -0.00671700       0.00924200       0.00135800       0.00000000
Fe       5.37442303       0.82649770      12.72889625  T        1      -0.00176600       0.00056700       0.00103400      -0.00176600       0.00056700       0.00103400       0.00000000
Fe       2.88366865       0.61491504      10.07545486  F        0       0.00000000       0.00000000       0.00000000       0.20139200       0.40935200       0.12307500       0.00000000
Fe       2.98278749       0.83054311      12.72900178  T        1       0.00206900       0.00122400       0.00301500       0.00206900       0.00122400       0.00301500       0.00000000
Fe       5.48035346       0.61491504      10.07545486  F        0       0.00000000       0.00000000       0.00000000      -0.20302800       0.40396400       0.11845100       0.00000000
Fe       2.88366865       7.84891763      12.67214027  F        0       0.00000000       0.00000000       0.00000000      -0.01400100      -0.11963200      -0.14673100       0.00000000
Fe       0.31689419       7.92450530      15.25270670  T        1      -0.00208700      -0.00749100      -0.00210500      -0.00208700      -0.00749100      -0.00210500       0.00000000
Fe       0.28698389       7.84891763      12.67214027  F        0       0.00000000       0.00000000       0.00000000      -0.02325300       0.00255900      -0.12822600       0.00000000
Fe       2.81130600       7.90076381      15.33806191  T        1      -0.00184700      -0.00875800       0.00120400      -0.00184700      -0.00875800       0.00120400       0.00000000
Se      -1.01204887      13.81728528      14.14810278  T        1       0.00329900      -0.00820900      -0.00337100       0.00329900      -0.00820900      -0.00337100       0.00000000
Se       1.58532630      13.50855449      11.37379780  F        0       0.00000000       0.00000000       0.00000000      -0.01021000       1.93707600       0.22266300       0.00000000
Se       1.57455196       1.80984420      14.29377237  T        1      -0.00330500       0.00210500      -0.00271300      -0.00330500       0.00210500      -0.00271300       0.00000000
Se       4.18201099       2.18928066      11.37379852  F        0       0.00000000       0.00000000       0.00000000       0.01511100      -0.84738500      -0.40118500       0.00000000
Se       1.57525696       6.45400971      14.05569327  T        1      -0.00881900      -0.02049900       0.00145400      -0.00881900      -0.02049900       0.00145400       0.00000000
Se       4.18201099       6.27455202      11.37379852  F        0       0.00000000       0.00000000       0.00000000      -0.00372900       1.96181800       0.26222900       0.00000000
Se       1.58532624       9.42328325      11.37379852  F        0       0.00000000       0.00000000       0.00000000       0.03800400      -2.02666100       0.17139100       0.00000000
Se       4.16078593       9.23703043      14.05123810  T        1       0.00019000       0.01152700       0.00906100       0.00019000       0.01152700       0.00906100       0.00000000
K       -1.01135839      11.46591917       6.18042865  F        0       0.00000000       0.00000000       0.00000000      -0.00233200      -0.01238200      -0.68970500       0.00000000
K        1.58532624      11.46591917       8.77711311  F        0       0.00000000       0.00000000       0.00000000      -0.00116400      -0.03260200      -0.22342200       0.00000000
K        1.58532624       4.23191658       6.18042865  F        0       0.00000000       0.00000000       0.00000000      -0.00066300       0.15063200      -0.71219000       0.00000000
K        4.18201099       4.23191658       8.77711311  F        0       0.00000000       0.00000000       0.00000000      -0.00142500       0.10720400      -0.12108400       0.00000000
Fe       5.48035346       0.61491504       7.47877136  F        0       0.00000000       0.00000000       0.00000000       0.04054100      -0.17947900      -0.22477100       0.00000000
Fe       2.88366865       0.61491504       4.88208595  F        0       0.00000000       0.00000000       0.00000000      -0.57621000      -0.88508200       0.55523200       0.00000000
Fe       2.88366865       0.61491504       7.47877136  F        0       0.00000000       0.00000000       0.00000000      -0.03751500      -0.17909800      -0.22254200       0.00000000
Fe       5.48035346       0.61491504       4.88208595  F        0       0.00000000       0.00000000       0.00000000       0.58207400      -0.87983900       0.55049300       0.00000000
Fe       2.88366865       7.84891763       7.47877136  F        0       0.00000000       0.00000000       0.00000000      -0.00586900       0.02258100      -0.22528400       0.00000000
Fe       0.28698389       7.84891763      10.07545486  F        0       0.00000000       0.00000000       0.00000000       0.01040500      -0.00036800      -0.10676600       0.00000000
Fe       0.28698389       7.84891763       7.47877136  F        0       0.00000000       0.00000000       0.00000000       0.00915200       0.01806600      -0.23603200       0.00000000
Fe       2.88366865       7.84891763      10.07545486  F        0       0.00000000       0.00000000       0.00000000      -0.02733600       0.04400000      -0.11384500       0.00000000
Se      -1.01135845      13.50855449       8.77711334  F        0       0.00000000       0.00000000       0.00000000      -0.01109100       2.43318500      -0.11402000       0.00000000
Se       1.58532630      13.50855449       6.18042889  F        0       0.00000000       0.00000000       0.00000000      -0.00844800       1.66992000       0.42703200       0.00000000
Se       1.58532624       2.18928066       8.77711311  F        0       0.00000000       0.00000000       0.00000000       0.02295500      -2.09552700       0.05245900       0.00000000
Se       4.18201099       2.18928066       6.18042865  F        0       0.00000000       0.00000000       0.00000000       0.02451600      -1.82492000      -0.86268900       0.00000000
Se       1.58532624       6.27455202       8.77711311  F        0       0.00000000       0.00000000       0.00000000      -0.01314500       2.16530300      -0.13397100       0.00000000
Se       4.18201099       6.27455202       6.18042865  F        0       0.00000000       0.00000000       0.00000000      -0.00712500       1.23458500       0.54620500       0.00000000
Se       1.58532624       9.42328325       6.18042865  F        0       0.00000000       0.00000000       0.00000000       0.02689600      -1.39110300       0.60155500       0.00000000
Se       4.18201099       9.42328325       8.77711311  F        0       0.00000000       0.00000000       0.00000000       0.00987400      -2.19585400      -0.12324700       0.00000000
K        4.18201099      11.46591917      11.37379852  F        0       0.00000000       0.00000000       0.00000000      -0.00535800       0.02911100       0.49270400       0.00000000
K        6.78618189      11.58843432      15.17966176  T        1      -0.00546400      -0.01043200      -0.00205500      -0.00546400      -0.01043200      -0.00205500       0.00000000
K        6.77869569       4.23191658      11.37379852  F        0       0.00000000       0.00000000       0.00000000       0.00393200      -0.04331300       0.57464300       0.00000000
K        9.36960378       3.92238511      14.95010490  T        1      -0.00557400       0.01433200       0.00261900      -0.00557400       0.01433200       0.00261900       0.00000000
Fe       0.17749085       0.82372094      12.72789313  T        1      -0.00515700       0.00162600       0.00112500      -0.00515700       0.00162600       0.00112500       0.00000000
Fe       8.07703792       0.61491504      10.07545486  F        0       0.00000000       0.00000000       0.00000000       0.19650700       0.40228200       0.12374500       0.00000000
Fe       8.17881540       0.82563407      12.72461896  T        1      -0.00168700       0.00224100       0.00799100      -0.00168700       0.00224100       0.00799100       0.00000000
Fe       0.28698360       0.61491504      10.07545486  F        0       0.00000000       0.00000000       0.00000000      -0.20249300       0.40940300       0.11962700       0.00000000
Fe       8.07703792       7.84891763      12.67214027  F        0       0.00000000       0.00000000       0.00000000       0.01668000       0.10642900      -0.23926700       0.00000000
Fe       5.48223622       7.89410841      15.46974133  T        1       0.00221700      -0.00769200      -0.00984700       0.00221700      -0.00769200      -0.00984700       0.00000000
Fe       5.48035346       7.84891763      12.67214027  F        0       0.00000000       0.00000000       0.00000000       0.01758500       0.01524000       0.09076200       0.00000000
Fe       8.11577355       7.95724243      15.30679350  T        1       0.01146200      -0.00537000       0.00278200       0.01146200      -0.00537000       0.00278200       0.00000000
Se       4.17919058      13.81379574      14.14701256  T        1      -0.00297700      -0.01080600      -0.00349700      -0.00297700      -0.01080600      -0.00349700       0.00000000
Se       6.77869593      13.50855449      11.37379780  F        0       0.00000000       0.00000000       0.00000000      -0.01177400       1.93086900       0.22452900       0.00000000
Se       6.78112595       1.81672766      14.28891692  T        1      -0.01111400       0.00089300      -0.00326500      -0.01111400       0.00089300      -0.00326500       0.00000000
Se       9.37538062       2.18928066      11.37379852  F        0       0.00000000       0.00000000       0.00000000       0.01620000      -0.84082500      -0.41583600       0.00000000
Se       6.77378274       6.49529762      14.07671563  T        1      -0.00137300       0.01719700       0.01184700      -0.00137300       0.01719700       0.01184700       0.00000000
Se      -1.01135816       6.27455202      11.37379852  F        0       0.00000000       0.00000000       0.00000000      -0.02695100       2.00532300       0.22090900       0.00000000
Se       6.77869569       9.42328325      11.37379852  F        0       0.00000000       0.00000000       0.00000000       0.04258000      -1.95872600       0.30425400       0.00000000
Se      -0.97762906       9.32835203      14.01273675  T        1       0.03067000       0.01455000      -0.00597000       0.03067000       0.01455000      -0.00597000       0.00000000
K        4.18201099      11.46591917       6.18042865  F        0       0.00000000       0.00000000       0.00000000      -0.00194300      -0.01317700      -0.68747100       0.00000000
K        6.77869569      11.46591917       8.77711311  F        0       0.00000000       0.00000000       0.00000000      -0.00223000      -0.03452900      -0.22364000       0.00000000
K        6.77869569       4.23191658       6.18042865  F        0       0.00000000       0.00000000       0.00000000      -0.00315900       0.14948900      -0.71233900       0.00000000
K        9.37538062       4.23191658       8.77711311  F        0       0.00000000       0.00000000       0.00000000      -0.00256700       0.10412500      -0.11985400       0.00000000
Fe       0.28698360       0.61491504       7.47877136  F        0       0.00000000       0.00000000       0.00000000       0.03933600      -0.18030000      -0.22037200       0.00000000
Fe       8.07703792       0.61491504       4.88208595  F        0       0.00000000       0.00000000       0.00000000      -0.58394800      -0.88315900       0.55381600       0.00000000
Fe       8.07703792       0.61491504       7.47877136  F        0       0.00000000       0.00000000       0.00000000      -0.03982600      -0.18091100      -0.22236600       0.00000000
Fe       0.28698360       0.61491504       4.88208595  F        0       0.00000000       0.00000000       0.00000000       0.58213600      -0.88662900       0.55624400       0.00000000
Fe       8.07703792       7.84891763       7.47877136  F        0       0.00000000       0.00000000       0.00000000      -0.00837100       0.02163100      -0.22726000       0.00000000
Fe       5.48035346       7.84891763      10.07545486  F        0       0.00000000       0.00000000       0.00000000      -0.00747600      -0.02204500      -0.12269400       0.00000000
Fe       5.48035346       7.84891763       7.47877136  F        0       0.00000000       0.00000000       0.00000000       0.01604300       0.02265700      -0.23176700       0.00000000
Fe       8.07703792       7.84891763      10.07545486  F        0       0.00000000       0.00000000       0.00000000       0.01030500      -0.05590500      -0.13408600       0.00000000
Se       4.18201099      13.50855449       8.77711334  F        0       0.00000000       0.00000000       0.00000000      -0.01022100       2.43994300      -0.11751500       0.00000000
Se       6.77869593      13.50855449       6.18042889  F        0       0.00000000       0.00000000       0.00000000      -0.01283000       1.66899500       0.42348200       0.00000000
Se       6.77869569       2.18928066       8.77711311  F        0       0.00000000       0.00000000       0.00000000       0.02357100      -2.09599400       0.05199600       0.00000000
Se       9.37538062       2.18928066       6.18042865  F        0       0.00000000       0.00000000       0.00000000       0.02159400      -1.82082700      -0.86176700       0.00000000
Se       6.77869569       6.27455202       8.77711311  F        0       0.00000000       0.00000000       0.00000000      -0.01119100       2.16886600      -0.12576800       0.00000000
Se      -1.01135816       6.27455202       6.18042865  F        0       0.00000000       0.00000000       0.00000000      -0.01389900       1.23688300       0.53974200       0.00000000
Se       6.77869569       9.42328325       6.18042865  F        0       0.00000000       0.00000000       0.00000000       0.01955800      -1.37674200       0.59666200       0.00000000
Se      -1.01135816       9.42328325       8.77711311  F        0       0.00000000       0.00000000       0.00000000       0.02847000      -2.17639100      -0.12184300       0.00000000
C        3.88541347       7.23001412      16.87393832  T        2      -0.03261400       0.00363600      -0.01071600      -0.03261400       0.00363600      -0.01071600       0.00000000
H        5.05436526       7.24115904      17.02893125  T        2      -0.00345900       0.00018300      -0.00145200      -0.00345900       0.00018300      -0.00145200       0.00000000
H        3.65465231       6.16579518      17.08405100  T        2      -0.02224400      -0.00332200       0.00306400      -0.02224400      -0.00332200       0.00306400       0.00000000
H        3.56265372       7.82141715      17.75547321  T        2      -0.01787300      -0.00771600       0.01715300      -0.01787300      -0.00771600       0.01715300       0.00000000
C        6.85493107       8.71173755      16.33781306  T        2      -0.00506400       0.00422700      -0.00336900      -0.00506400       0.00422700      -0.00336900       0.00000000
H        6.87164843       9.37020810      17.23772990  T        2      -0.02267000      -0.01187900       0.01605300      -0.02267000      -0.01187900       0.01605300       0.00000000
86
Lattice="10.386738777160645 -7.788806760638864e-32 -6.360043234456664e-16 -2.596684694290161 14.468005180358887 2.596684694290161 -0.0 3.816026152432235e-15 31.16021728515625" Properties=species:S:1:pos:R:3:move_mask:L:1:tags:I:1:DFT_forces:R:3:forces:R:3 DFT_energy=-410.32453089 energy=-410.32453089 pbc="T T T"
K       -1.01135839      11.46591917      11.37379852  F        0       0.00000000       0.00000000       0.00000000       0.00000000       0.00000000       0.00000000
K        1.58293512      11.58115991      15.32461165  T        1      -0.00825700       0.00922800      -0.01180500      -0.00825700       0.00922800      -0.01180500
K        1.58532624       4.23191658      11.37379852  F        0       0.00000000       0.00000000       0.00000000       0.00000000       0.00000000       0.00000000
K        4.21757186       3.83593152      14.94903514  T        1      -0.01055900      -0.01379900      -0.02144800      -0.01055900      -0.01379900      -0.02144800
Fe       5.37197829       0.81903808      12.72539344  T        1      -0.00203200       0.00172300       0.00218900      -0.00203200       0.00172300       0.00218900
Fe       2.88366865       0.61491504      10.07545486  F        0       0.00000000       0.00000000       0.00000000       0.00000000       0.00000000       0.00000000
Fe       2.97906638       0.83419092      12.72907061  T        1       0.00244300      -0.00153700      -0.00217900       0.00244300      -0.00153700      -0.00217900
Fe       5.48035346       0.61491504      10.07545486  F        0       0.00000000       0.00000000       0.00000000       0.00000000       0.00000000       0.00000000
Fe       2.88366865       7.84891763      12.67214027  F        0       0.00000000       0.00000000       0.00000000       0.00000000       0.00000000       0.00000000
Fe       0.37073743       7.89992806      15.23807820  T        1      -0.03779600      -0.01953300       0.02163100      -0.03779600      -0.01953300       0.02163100
Fe       0.28698389       7.84891763      12.67214027  F        0       0.00000000       0.00000000       0.00000000       0.00000000       0.00000000       0.00000000
Fe       2.77505476       7.92705642      15.31645740  T        1      -0.00776400       0.01001800      -0.03242400      -0.00776400       0.01001800      -0.03242400
Se      -1.01047083      13.81622775      14.14947351  T        1       0.00034200      -0.00255100      -0.00526800       0.00034200      -0.00255100      -0.00526800
Se       1.58532630      13.50855449      11.37379780  F        0       0.00000000       0.00000000       0.00000000       0.00000000       0.00000000       0.00000000
Se       1.56671615       1.83521937      14.27631923  T        1      -0.00059200      -0.00022400       0.00198100      -0.00059200      -0.00022400       0.00198100
Se       4.18201099       2.18928066      11.37379852  F        0       0.00000000       0.00000000       0.00000000       0.00000000       0.00000000       0.00000000
Se       1.58385989       6.42610577      14.03184349  T        1       0.01087800       0.01511400       0.01906200       0.01087800       0.01511400       0.01906200
Se       4.18201099       6.27455202      11.37379852  F        0       0.00000000       0.00000000       0.00000000       0.00000000       0.00000000       0.00000000
Se       1.58532624       9.42328325      11.37379852  F        0       0.00000000       0.00000000       0.00000000       0.00000000       0.00000000       0.00000000
Se       4.16202435       9.25336358      14.04981705  T        1       0.00971300       0.01987400      -0.02874100       0.00971300       0.01987400      -0.02874100
K       -1.01135839      11.46591917       6.18042865  F        0       0.00000000       0.00000000       0.00000000       0.00000000       0.00000000       0.00000000
K        1.58532624      11.46591917       8.77711311  F        0       0.00000000       0.00000000       0.00000000       0.00000000       0.00000000       0.00000000
K        1.58532624       4.23191658       6.18042865  F        0       0.00000000       0.00000000       0.00000000       0.00000000       0.00000000       0.00000000
K        4.18201099       4.23191658       8.77711311  F        0       0.00000000       0.00000000       0.00000000       0.00000000       0.00000000       0.00000000
Fe       5.48035346       0.61491504       7.47877136  F        0       0.00000000       0.00000000       0.00000000       0.00000000       0.00000000       0.00000000
Fe       2.88366865       0.61491504       4.88208595  F        0       0.00000000       0.00000000       0.00000000       0.00000000       0.00000000       0.00000000
Fe       2.88366865       0.61491504       7.47877136  F        0       0.00000000       0.00000000       0.00000000       0.00000000       0.00000000       0.00000000
Fe       5.48035346       0.61491504       4.88208595  F        0       0.00000000       0.00000000       0.00000000       0.00000000       0.00000000       0.00000000
Fe       2.88366865       7.84891763       7.47877136  F        0       0.00000000       0.00000000       0.00000000       0.00000000       0.00000000       0.00000000
Fe       0.28698389       7.84891763      10.07545486  F        0       0.00000000       0.00000000       0.00000000       0.00000000       0.00000000       0.00000000
Fe       0.28698389       7.84891763       7.47877136  F        0       0.00000000       0.00000000       0.00000000       0.00000000       0.00000000       0.00000000
Fe       2.88366865       7.84891763      10.07545486  F        0       0.00000000       0.00000000       0.00000000       0.00000000       0.00000000       0.00000000
Se      -1.01135845      13.50855449       8.77711334  F        0       0.00000000       0.00000000       0.00000000       0.00000000       0.00000000       0.00000000
Se       1.58532630      13.50855449       6.18042889  F        0       0.00000000       0.00000000       0.00000000       0.00000000       0.00000000       0.00000000
Se       1.58532624       2.18928066       8.77711311  F        0       0.00000000       0.00000000       0.00000000       0.00000000       0.00000000       0.00000000
Se       4.18201099       2.18928066       6.18042865  F        0       0.00000000       0.00000000       0.00000000       0.00000000       0.00000000       0.00000000
Se       1.58532624       6.27455202       8.77711311  F        0       0.00000000       0.00000000       0.00000000       0.00000000       0.00000000       0.00000000
Se       4.18201099       6.27455202       6.18042865  F        0       0.00000000       0.00000000       0.00000000       0.00000000       0.00000000       0.00000000
Se       1.58532624       9.42328325       6.18042865  F        0       0.00000000       0.00000000       0.00000000       0.00000000       0.00000000       0.00000000
Se       4.18201099       9.42328325       8.77711311  F        0       0.00000000       0.00000000       0.00000000       0.00000000       0.00000000       0.00000000
K        4.18201099      11.46591917      11.37379852  F        0       0.00000000       0.00000000       0.00000000       0.00000000       0.00000000       0.00000000
K        6.79559279      11.55569852      15.09626003  T        1      -0.00211600       0.00012100       0.00544100      -0.00211600       0.00012100       0.00544100
K        6.77869569       4.23191658      11.37379852  F        0       0.00000000       0.00000000       0.00000000       0.00000000       0.00000000       0.00000000
K        9.35281559       3.97372873      14.95812689  T        1      -0.00086100       0.00026900      -0.00108200      -0.00086100       0.00026900      -0.00108200
Fe       0.17473973       0.82150981      12.72659777  T        1      -0.00426500      -0.00206700      -0.00089900      -0.00426500      -0.00206700      -0.00089900
Fe       8.07703792       0.61491504      10.07545486  F        0       0.00000000       0.00000000       0.00000000       0.00000000       0.00000000       0.00000000
Fe       8.18121817       0.81705334      12.72068707  T        1      -0.00019500       0.00113700       0.00109300      -0.00019500       0.00113700       0.00109300
Fe       0.28698360       0.61491504      10.07545486  F        0       0.00000000       0.00000000       0.00000000       0.00000000       0.00000000       0.00000000
Fe       8.07703792       7.84891763      12.67214027  F        0       0.00000000       0.00000000       0.00000000       0.00000000       0.00000000       0.00000000
Fe       5.38766591       7.84416820      15.45611194  T        1      -0.01707800      -0.00299200      -0.02501700      -0.01707800      -0.00299200      -0.02501700
Fe       5.48035346       7.84891763      12.67214027  F        0       0.00000000       0.00000000       0.00000000       0.00000000       0.00000000       0.00000000
Fe       7.95958014       8.04085569      15.31124940  T        1       0.00113600      -0.01018000      -0.02812500       0.00113600      -0.01018000      -0.02812500
Se       4.17830114      13.80664705      14.14196989  T        1       0.00210100       0.00235200      -0.00331500       0.00210100       0.00235200      -0.00331500
Se       6.77869593      13.50855449      11.37379780  F        0       0.00000000       0.00000000       0.00000000       0.00000000       0.00000000       0.00000000
Se       6.78289091       1.79954000      14.28767549  T        1      -0.00189400       0.00176900       0.00309000      -0.00189400       0.00176900       0.00309000
Se       9.37538062       2.18928066      11.37379852  F        0       0.00000000       0.00000000       0.00000000       0.00000000       0.00000000       0.00000000
Se       6.75708381       6.50286339      14.07124383  T        1       0.00455100      -0.00030100      -0.01210500       0.00455100      -0.00030100      -0.01210500
Se      -1.01135816       6.27455202      11.37379852  F        0       0.00000000       0.00000000       0.00000000       0.00000000       0.00000000       0.00000000
Se       6.77869569       9.42328325      11.37379852  F        0       0.00000000       0.00000000       0.00000000       0.00000000       0.00000000       0.00000000
Se      -0.98874406       9.29919015      14.03687957  T        1      -0.00103500      -0.00682200       0.01440100      -0.00103500      -0.00682200       0.01440100
K        4.18201099      11.46591917       6.18042865  F        0       0.00000000       0.00000000       0.00000000       0.00000000       0.00000000       0.00000000
K        6.77869569      11.46591917       8.77711311  F        0       0.00000000       0.00000000       0.00000000       0.00000000       0.00000000       0.00000000
K        6.77869569       4.23191658       6.18042865  F        0       0.00000000       0.00000000       0.00000000       0.00000000       0.00000000       0.00000000
K        9.37538062       4.23191658       8.77711311  F        0       0.00000000       0.00000000       0.00000000       0.00000000       0.00000000       0.00000000
Fe       0.28698360       0.61491504       7.47877136  F        0       0.00000000       0.00000000       0.00000000       0.00000000       0.00000000       0.00000000
Fe       8.07703792       0.61491504       4.88208595  F        0       0.00000000       0.00000000       0.00000000       0.00000000       0.00000000       0.00000000
Fe       8.07703792       0.61491504       7.47877136  F        0       0.00000000       0.00000000       0.00000000       0.00000000       0.00000000       0.00000000
Fe       0.28698360       0.61491504       4.88208595  F        0       0.00000000       0.00000000       0.00000000       0.00000000       0.00000000       0.00000000
Fe       8.07703792       7.84891763       7.47877136  F        0       0.00000000       0.00000000       0.00000000       0.00000000       0.00000000       0.00000000
Fe       5.48035346       7.84891763      10.07545486  F        0       0.00000000       0.00000000       0.00000000       0.00000000       0.00000000       0.00000000
Fe       5.48035346       7.84891763       7.47877136  F        0       0.00000000       0.00000000       0.00000000       0.00000000       0.00000000       0.00000000
Fe       8.07703792       7.84891763      10.07545486  F        0       0.00000000       0.00000000       0.00000000       0.00000000       0.00000000       0.00000000
Se       4.18201099      13.50855449       8.77711334  F        0       0.00000000       0.00000000       0.00000000       0.00000000       0.00000000       0.00000000
Se       6.77869593      13.50855449       6.18042889  F        0       0.00000000       0.00000000       0.00000000       0.00000000       0.00000000       0.00000000
Se       6.77869569       2.18928066       8.77711311  F        0       0.00000000       0.00000000       0.00000000       0.00000000       0.00000000       0.00000000
Se       9.37538062       2.18928066       6.18042865  F        0       0.00000000       0.00000000       0.00000000       0.00000000       0.00000000       0.00000000
Se       6.77869569       6.27455202       8.77711311  F        0       0.00000000       0.00000000       0.00000000       0.00000000       0.00000000       0.00000000
Se      -1.01135816       6.27455202       6.18042865  F        0       0.00000000       0.00000000       0.00000000       0.00000000       0.00000000       0.00000000
Se       6.77869569       9.42328325       6.18042865  F        0       0.00000000       0.00000000       0.00000000       0.00000000       0.00000000       0.00000000