68
Lattice="9.404844284057617 -1.0540183519334445e-16 -0.8606712818145752 -2.834807872772217 12.863853454589844 1.7213425636291504 -0.0 4.546736065040103e-15 37.12691879272461" Properties=species:S:1:pos:R:3:move_mask:L:1:tags:I:1:DFT_forces:R:3:forces:R:3:magmoms:R:1 DFT_energy=-501.94742465 energy=-501.94742465 dipole="_JSON [[0.0, 0.0, 0.0]]" magmom=0.0 free_energy=-501.95789451 pbc="T T T"
Ge      -0.04271208       5.50092714      13.02019365  F        0       0.00000000       0.00000000       0.00000000      -0.03664600      -0.09816700      -0.42089500       0.00000000
Ge       3.19437636       1.48097270      14.58753831  F        0       0.00000000       0.00000000       0.00000000      -0.13667200      -0.03691600      -0.19990900       0.00000000
Ge       3.77680604      10.13736869      17.96446785  T        1       0.01891100      -0.00488400      -0.00057600       0.01891100      -0.00488400      -0.00057600       0.00000000
Ge       6.12504376       9.52088134      10.59217770  F        0       0.00000000       0.00000000       0.00000000       0.45236700      -0.17085900      -0.60743200       0.00000000
Ge       5.32809962       5.93656271      12.32673700  F        0       0.00000000       0.00000000       0.00000000      -0.05125800      -0.02604300      -0.27457700       0.00000000
Ge       8.56518806       1.91660850      13.89408238  F        0       0.00000000       0.00000000       0.00000000       0.08463200      -0.17236600      -0.37939200       0.00000000
Ge      -0.48745961      10.72521510      18.22900537  T        1       0.02885700       0.00059600       0.01109600       0.02885700       0.00059600       0.01109600       0.00000000
Ge       2.09101094       9.95651691      10.75939233  F        0       0.00000000       0.00000000       0.00000000       0.14754900      -0.20850700      -0.58201100       0.00000000
Ge       2.56602849       3.17608135      10.95120199  F        0       0.00000000       0.00000000       0.00000000       0.00726500       0.18662200      -1.11333300       0.00000000
Ge       2.96830930      12.01998066      14.23988826  F        0       0.00000000       0.00000000       0.00000000       0.12219200       0.08040900      -0.19439200       0.00000000
Ge       6.20539762       8.00002639      15.80723507  F        0       0.00000000       0.00000000       0.00000000       0.25525400       0.29925000      -1.13862700       0.00000000
Ge       0.11535333       4.11725347      18.33193549  T        1      -0.01396400       0.00616700      -0.00028600      -0.01396400       0.00616700      -0.00028600       0.00000000
Ge       5.52135171       2.03737586      11.20863397  F        0       0.00000000       0.00000000       0.00000000      -0.20600500      -0.27377400      -0.87143300       0.00000000
Ge       5.92363228      10.88127582      14.49732144  F        0       0.00000000       0.00000000       0.00000000       0.11858500       0.14389300       0.02270800       0.00000000
Ge      -0.12416346       6.71461527      17.10539446  T        1      -0.00162100       0.02955200      -0.00611000      -0.00162100       0.02955200      -0.00611000       0.00000000
Ge       2.97029865       2.91338061      18.48416609  T        1      -0.00029700      -0.01976500       0.04202900      -0.00029700      -0.01976500       0.04202900       0.00000000
Ge       6.39864965       4.10083978      14.68913014  F        0       0.00000000       0.00000000       0.00000000      -0.00493300       0.30501300      -0.62090500       0.00000000
Ge       0.20405641       0.12459320      17.14573344  T        1       0.00270900      -0.00788000       0.00098900       0.00270900      -0.00788000       0.00098900       0.00000000
Ge      -0.07552730      12.14074819      11.55444057  F        0       0.00000000       0.00000000       0.00000000      -0.06641700      -0.00275400      -0.12309700       0.00000000
Ge       3.16156138       8.12079399      13.12178476  F        0       0.00000000       0.00000000       0.00000000      -0.00043400      -0.11559000      -0.27039000       0.00000000
Ge      -0.87247144       8.55642955      13.28900201  F        0       0.00000000       0.00000000       0.00000000       0.00475400       0.02975700      -0.42962500       0.00000000
Ge       2.36461724       4.53647583      14.85634668  F        0       0.00000000       0.00000000       0.00000000      -0.23144800      -0.01830200      -0.17753600       0.00000000
Ge       5.68039762       0.77865635      16.63270602  T        1      -0.00841000       0.00561300      -0.01981600      -0.00841000       0.00561300      -0.01981600       0.00000000
Ge       5.29528417      12.57638400      10.86098464  F        0       0.00000000       0.00000000       0.00000000       0.09607300       0.49751000      -0.68403600       0.00000000
Nb       3.30421485       0.59231417      12.08143861  F        0       0.00000000       0.00000000       0.00000000      -0.26612700       0.17765200      -0.37191300       0.00000000
Nb       3.70649566       9.43621318      15.37012536  F        0       0.00000000       0.00000000       0.00000000       0.25369600      -0.22270700      -0.21280200       0.00000000
Nb       6.89227231       5.49805520      16.88934500  T        1      -0.01003300       0.02710800       0.01763700      -0.01003300       0.02710800       0.01763700       0.00000000
Nb       0.06712641       4.61226862      10.51409299  F        0       0.00000000       0.00000000       0.00000000      -0.28187800      -0.70808500       1.45535100       0.00000000
Nb       4.78316535       4.62114351      10.07839735  F        0       0.00000000       0.00000000       0.00000000       0.53006300       0.05613800       1.37943700       0.00000000
Nb       8.02025361       0.60118895      11.64574177  F        0       0.00000000       0.00000000       0.00000000       0.21793000       0.58741400       0.17301500       0.00000000
Nb      -0.98230992       9.44508808      15.79510171  F        0       0.00000000       0.00000000       0.00000000      -0.17980700       0.24949100       0.09024100       0.00000000
Nb       2.40914001       5.29498678      17.37971243  T        1      -0.02160200       0.02328100       0.01662700      -0.02160200       0.02328100       0.01662700       0.00000000
Nb       4.41921510       6.22557514      14.94515092  F        0       0.00000000       0.00000000       0.00000000       0.03913300      -0.09650900       0.50952900       0.00000000
Nb       7.70973044       2.46550254      16.37969672  T        1       0.02227200       0.02099800      -0.00716200       0.02227200       0.02099800      -0.00716200       0.00000000
Nb       0.77984561       1.40162985      10.08911760  F        0       0.00000000       0.00000000       0.00000000      -0.56207900      -0.26307800       1.63135400       0.00000000
Nb       1.18212642      10.24552982      13.37780626  F        0       0.00000000       0.00000000       0.00000000      -0.20213300      -0.09041600       0.17609500       0.00000000
Nb       1.26554002       7.23500126      14.76580102  F        0       0.00000000       0.00000000       0.00000000      -0.23194300       0.05668700       0.36487100       0.00000000
Nb       4.43840913       3.26469439      16.23835285  T        1      -0.00415000      -0.01557400       0.01873000      -0.00415000      -0.01557400       0.01873000       0.00000000
Nb       7.03101501       2.41105597       9.04909832  F        0       0.00000000       0.00000000       0.00000000       1.44440300      -0.23393200       1.85741100       0.00000000
Nb      -1.97154851      11.25495498      13.19845636  F        0       0.00000000       0.00000000       0.00000000      -0.29898500       0.02647200      -0.46915200       0.00000000
Nb       7.30753433       3.81182735      12.07071812  F        0       0.00000000       0.00000000       0.00000000      -0.08726900      -0.13838400      -0.66611300       0.00000000
Nb      -1.69502936      12.65572672      16.22007663  F        0       0.00000000       0.00000000       0.00000000       0.16948100      -0.29673400      -0.13214000       0.00000000
Nb       1.44302031       8.92938674      17.10281660  T        1      -0.00650600      -0.01679500      -0.00706700      -0.00650600      -0.01679500      -0.00706700       0.00000000
Nb       4.07044591       7.83178203      10.50337274  F        0       0.00000000       0.00000000       0.00000000       0.23859100      -0.84193700       1.64271500       0.00000000
Nb       7.22412075       6.82235592      10.68272145  F        0       0.00000000       0.00000000       0.00000000       0.22533000      -0.18842500       0.21081800       0.00000000
Nb       1.05636491       2.80240171      13.11073740  F        0       0.00000000       0.00000000       0.00000000      -0.15975800      -0.18513200      -0.22391600       0.00000000
Nb       1.45864572      11.64630068      16.39942462  F        0       0.00000000       0.00000000       0.00000000       0.21011200       0.37048200       0.93459700       0.00000000
Nb       4.65761958       7.54486989      17.80171784  T        1      -0.00313900      -0.00235000      -0.04229600      -0.00313900      -0.00235000      -0.04229600       0.00000000
Nb       2.61030950       5.55469530      12.31959207  F        0       0.00000000       0.00000000       0.00000000      -0.18608900       0.21486800      -1.24096900       0.00000000
Nb       5.84739818       1.53474085      13.88693674  F        0       0.00000000       0.00000000       0.00000000       0.20592600       0.32634300       0.12274700       0.00000000
Nb       6.27331948      10.34408682      17.13219779  T        1      -0.03153000      -0.00858400       0.00760400      -0.03153000      -0.00858400       0.00760400       0.00000000
Nb      -0.62677895       9.57464950      10.75224740  F        0       0.00000000       0.00000000       0.00000000      -0.17861000       0.05639800       1.02957000       0.00000000
Nb       7.49789545       6.49268453      13.91260273  F        0       0.00000000       0.00000000       0.00000000       0.38491500       0.26918400      -0.00563400       0.00000000
Nb       1.33013977       2.47273033      16.34062059  F        0       0.00000000       0.00000000       0.00000000      -0.30575100       0.03465200       0.21320600       0.00000000
Nb       1.87188029      11.35617063      19.13986990  T        1       0.01036900      -0.00338600      -0.01382200       0.01036900      -0.00338600      -0.01382200       0.00000000
Nb       4.26080693      10.51263874      12.34525926  F        0       0.00000000       0.00000000       0.00000000      -0.13437800       0.25990200      -0.79460800       0.00000000
Nb       5.87935115       8.50266140      13.12893040  F        0       0.00000000       0.00000000       0.00000000      -0.18057400      -0.38614800      -0.21863200       0.00000000
Nb      -0.28840457       4.48270719      15.55694635  F        0       0.00000000       0.00000000       0.00000000      -0.06870600      -0.17496500      -0.07075300       0.00000000
Nb       2.99059450       0.54360394      17.11175968  T        1      -0.01388200       0.00370400      -0.01844700      -0.01388200       0.00370400      -0.01844700       0.00000000
Nb       2.64226283      12.52261572      11.56158550  F        0       0.00000000       0.00000000       0.00000000      -0.16073800       0.68993100       0.13511900       0.00000000
Nb       4.22885407       3.54471796      13.10326440  F        0       0.00000000       0.00000000       0.00000000      -0.15749600      -0.17689900      -0.18004700       0.00000000
Nb       4.63113439      12.38861721      16.39195235  F        0       0.00000000       0.00000000       0.00000000      -0.39568000      -0.12679300       1.16519800       0.00000000
Nb      -1.63983896       8.17705409      18.72979620  T        1       0.02650100      -0.01067300      -0.00631400       0.02650100      -0.01067300      -0.00631400       0.00000000
Nb       0.99176539       7.56467216      11.53591974  F        0       0.00000000       0.00000000       0.00000000      -0.35960300       0.31619900      -0.43590000       0.00000000
O        3.23672327       6.50011032      18.98544637  T        2      -0.01433800      -0.00313700      -0.00498800      -0.01433800      -0.00313700      -0.00498800       0.00000000
H        3.48966926       6.03010693      19.80021493  T        2      -0.04547200       0.00550400       0.00650000      -0.04547200       0.00550400       0.00650000       0.00000000
C        6.41850960       6.68645258      18.65671448  T        2      -0.02594300      -0.00939500       0.02094900      -0.02594300      -0.00939500       0.02094900       0.00000000
H        6.43648254       6.20747815      19.66380021  T        2       0.01443600      -0.00094800      -0.01908700       0.01443600      -0.00094800      -0.01908700       0.00000000
68
Lattice="9.404844284057617 -1.0540183519334445e-16 -0.8606712818145752 -2.834807872772217 12.863853454589844 1.7213425636291504 -0.0 4.546736065040103e-15 37.12691879272461" Properties=species:S:1:pos:R:3:move_mask:L:1:tags:I:1:DFT_forces:R:3:forces:R:3 DFT_energy=-501.86090982 energy=-501.86090982 pbc="T T T"
Ge      -0.04271208       5.50092714      13.02019365  F        0       0.00000000       0.00000000       0.00000000       0.00000000       0.00000000       0.00000000
Ge       3.19437636       1.48097270      14.58753831  F        0       0.00000000       0.00000000       0.00000000       0.00000000       0.00000000       0.00000000
Ge       3.77423236      10.13596354      17.96413367  T        1       0.00368000      -0.01561000       0.00191600       0.00368000      -0.01561000       0.00191600
Ge       6.12504376       9.52088134      10.59217770  F        0       0.00000000       0.00000000       0.00000000       0.00000000       0.00000000       0.00000000
Ge       5.32809962       5.93656271      12.32673700  F        0       0.00000000       0.00000000       0.00000000       0.00000000       0.00000000       0.00000000
Ge       8.56518806       1.91660850      13.89408238  F        0       0.00000000       0.00000000       0.00000000       0.00000000       0.00000000       0.00000000
Ge      -0.48202976      10.70396457      18.23449719  T        1       0.00256200       0.01549900      -0.00578300       0.00256200       0.01549900      -0.00578300
Ge       2.09101094       9.95651691      10.75939233  F        0       0.00000000       0.00000000       0.00000000       0.00000000       0.00000000       0.00000000
Ge       2.56602849       3.17608135      10.95120199  F        0       0.00000000       0.00000000       0.00000000       0.00000000       0.00000000       0.00000000
Ge       2.96830930      12.01998066      14.23988826  F        0       0.00000000       0.00000000       0.00000000       0.00000000       0.00000000       0.00000000
Ge       6.20539762       8.00002639      15.80723507  F        0       0.00000000       0.00000000       0.00000000       0.00000000       0.00000000       0.00000000
Ge       0.10734805       4.10947976      18.33038627  T        1      -0.00055300      -0.00481300       0.00178900      -0.00055300      -0.00481300       0.00178900
Ge       5.52135171       2.03737586      11.20863397  F        0       0.00000000       0.00000000       0.00000000       0.00000000       0.00000000       0.00000000
Ge       5.92363228      10.88127582      14.49732144  F        0       0.00000000       0.00000000       0.00000000       0.00000000       0.00000000       0.00000000
Ge      -0.10325488       6.69999174      17.12800872  T        1       0.00272200       0.00185300      -0.01003500       0.00272200       0.00185300      -0.01003500
Ge       2.97290457       2.85850522      18.49812975  T        1      -0.00157300       0.01177000      -0.00280700      -0.00157300       0.01177000      -0.00280700
Ge       6.39864965       4.10083978      14.68913014  F        0       0.00000000       0.00000000       0.00000000       0.00000000       0.00000000       0.00000000
Ge       0.20006798       0.12322765      17.14476684  T        1       0.00269900       0.00140200       0.00215000       0.00269900       0.00140200       0.00215000
Ge      -0.07552730      12.14074819      11.55444057  F        0       0.00000000       0.00000000       0.00000000       0.00000000       0.00000000       0.00000000
Ge       3.16156138       8.12079399      13.12178476  F        0       0.00000000       0.00000000       0.00000000       0.00000000       0.00000000       0.00000000
Ge      -0.87247144       8.55642955      13.28900201  F        0       0.00000000       0.00000000       0.00000000       0.00000000       0.00000000       0.00000000
Ge       2.36461724       4.53647583      14.85634668  F        0       0.00000000       0.00000000       0.00000000       0.00000000       0.00000000       0.00000000
Ge       5.67315096       0.76705552      16.62374285  T        1       0.00290300       0.00423400       0.00251800       0.00290300       0.00423400       0.00251800
Ge       5.29528417      12.57638400      10.86098464  F        0       0.00000000       0.00000000       0.00000000       0.00000000       0.00000000       0.00000000
Nb       3.30421485       0.59231417      12.08143861  F        0       0.00000000       0.00000000       0.00000000       0.00000000       0.00000000       0.00000000
Nb       3.70649566       9.43621318      15.37012536  F        0       0.00000000       0.00000000       0.00000000       0.00000000       0.00000000       0.00000000
Nb       6.89420725       5.49923657      16.88853312  T        1       0.00905100       0.00082500       0.00050100       0.00905100       0.00082500       0.00050100
Nb       0.06712641       4.61226862      10.51409299  F        0       0.00000000       0.00000000       0.00000000       0.00000000       0.00000000       0.00000000
Nb       4.78316535       4.62114351      10.07839735  F        0       0.00000000       0.00000000       0.00000000       0.00000000       0.00000000       0.00000000
Nb       8.02025361       0.60118895      11.64574177  F        0       0.00000000       0.00000000       0.00000000       0.00000000       0.00000000       0.00000000
Nb      -0.98230992       9.44508808      15.79510171  F        0       0.00000000       0.00000000       0.00000000       0.00000000       0.00000000       0.00000000
Nb       2.43190104       5.25412553      17.40522670  T        1      -0.01877600       0.01036000      -0.01269000      -0.01877600       0.01036000      -0.01269000
Nb       4.41921510       6.22557514      14.94515092  F        0       0.00000000       0.00000000       0.00000000       0.00000000       0.00000000       0.00000000
Nb       7.70507944       2.46073425      16.37688828  T        1       0.00113300      -0.00055900      -0.00071200       0.00113300      -0.00055900      -0.00071200
Nb       0.77984561       1.40162985      10.08911760  F        0       0.00000000       0.00000000       0.00000000       0.00000000       0.00000000       0.00000000
Nb       1.18212642      10.24552982      13.37780626  F        0       0.00000000       0.00000000       0.00000000       0.00000000       0.00000000       0.00000000
Nb       1.26554002       7.23500126      14.76580102  F        0       0.00000000       0.00000000       0.00000000       0.00000000       0.00000000       0.00000000
Nb       4.43469778       3.25731630      16.24029853  T        1       0.00023700       0.00352900       0.00181100       0.00023700       0.00352900       0.00181100
Nb       7.03101501       2.41105597       9.04909832  F        0       0.00000000       0.00000000       0.00000000       0.00000000       0.00000000       0.00000000
Nb      -1.97154851      11.25495498      13.19845636  F        0       0.00000000       0.00000000       0.00000000       0.00000000       0.00000000       0.00000000
Nb       7.30753433       3.81182735      12.07071812  F        0       0.00000000       0.00000000       0.00000000       0.00000000       0.00000000       0.00000000
Nb      -1.69502936      12.65572672      16.22007663  F        0       0.00000000       0.00000000       0.00000000       0.00000000       0.00000000       0.00000000
Nb       1.44618287       8.91880895      17.10049634  T        1      -0.00315300       0.00071300      -0.00155600      -0.00315300       0.00071300      -0.00155600
Nb       4.07044591       7.83178203      10.50337274  F        0       0.00000000       0.00000000       0.00000000       0.00000000       0.00000000       0.00000000
Nb       7.22412075       6.82235592      10.68272145  F        0       0.00000000       0.00000000       0.00000000       0.00000000       0.00000000       0.00000000
Nb       1.05636491       2.80240171      13.11073740  F        0       0.00000000       0.00000000       0.00000000       0.00000000       0.00000000       0.00000000
Nb       1.45864572      11.64630068      16.39942462  F        0       0.00000000       0.00000000       0.00000000       0.00000000       0.00000000       0.00000000
Nb       4.63930232       7.55974174      17.76407675  T        1       0.00982800      -0.03140500       0.02941900       0.00982800      -0.03140500       0.02941900
Nb       2.61030950       5.55469530      12.31959207  F        0       0.00000000       0.00000000       0.00000000       0.00000000       0.00000000       0.00000000
Nb       5.84739818       1.53474085      13.88693674  F        0       0.00000000       0.00000000       0.00000000       0.00000000       0.00000000       0.00000000
Nb       6.27261990      10.34324494      17.13041805  T        1      -0.00028400       0.00096300       0.00065500      -0.00028400       0.00096300       0.00065500
Nb      -0.62677895       9.57464950      10.75224740  F        0       0.00000000       0.00000000       0.00000000       0.00000000       0.00000000       0.00000000
Nb       7.49789545       6.49268453      13.91260273  F        0       0.00000000       0.00000000       0.00000000       0.00000000       0.00000000       0.00000000
Nb       1.33013977       2.47273033      16.34062059  F        0       0.00000000       0.00000000       0.00000000       0.00000000       0.00000000       0.00000000
Nb       1.87051862      11.34563428      19.14415134  T        1       0.00581300       0.00435300      -0.00832100       0.00581300       0.00435300      -0.00832100
Nb       4.26080693      10.51263874      12.34525926  F        0       0.00000000       0.00000000       0.00000000       0.00000000       0.00000000       0.00000000
Nb       5.87935115       8.50266140      13.12893040  F        0       0.00000000       0.00000000       0.00000000       0.00000000       0.00000000       0.00000000
Nb      -0.28840457       4.48270719      15.55694635  F        0       0.00000000       0.00000000       0.00000000       0.00000000       0.00000000       0.00000000
Nb       2.98151027       0.52473532      17.09999432  T        1       0.00445100       0.00542600       0.00451800       0.00445100       0.00542600       0.00451800
Nb       2.64226283      12.52261572      11.56158550  F        0       0.00000000       0.00000000       0.00000000       0.00000000       0.00000000       0.00000000
Nb       4.22885407       3.54471796      13.10326440  F        0       0.00000000       0.00000000       0.00000000       0.00000000       0.00000000       0.00000000
Nb       4.63113439      12.38861721      16.39195235  F        0       0.00000000       0.00000000       0.00000000       0.00000000       0.00000000       0.00000000
Nb      -1.65169644       8.16368592      18.73637509  T        1       0.02009800       0.01049800      -0.01241800       0.02009800       0.01049800      -0.01241800
Nb       0.99176539       7.56467216      11.53591974  F        0       0.00000000       0.00000000       0.00000000       0.00000000       0.00000000       0.00000000
O        3.41639702       6.34546485      19.00740661  T        2      -0.06260000       0.04291200       0.00074100      -0.06260000       0.04291200       0.00074100
H        4.03571954       5.75696047      19.48296795  T        2      -0.18770900      -0.08018200       0.15198700      -0.18770900      -0.08018200       0.15198700
C        6.40248886       6.68098374      18.65138937  T        2       0.02443900       0.00718400      -0.01006200       0.02443900       0.00718400      -0.01006200
H        6.44079247       6.21733572      19.66583349  T        2      -0.00334000      -0.00384200      -0.01727200      -0.00334000      -0.00384200      -0.01727200
68
Lattice="9.404844284057617 -1.0540183519334445e-16 -0.8606712818145752 -2.834807872772217 12.863853454589844 1.7213425636291504 -0.0 4.546736065040103e-15 37.12691879272461" Properties=species:S:1:pos:R:3:move_mask:L:1:tags:I:1:DFT_forces:R:3:forces:R:3 DFT_energy=-501.58551168 energy=-501.58551168 pbc="T T T"
Ge      -0.04271208       5.50092714      13.02019365  F        0       0.00000000       0.00000000       0.00000000       0.00000000       0.00000000       0.00000000
Ge       3.19437636       1.48097270      14.58753831  F        0       0.00000000       0.00000000       0.00000000       0.00000000       0.00000000       0.00000000
Ge       3.76280765      10.16989157      17.95776012  T        1       0.00318200      -0.01649500      -0.00344400       0.00318200      -0.01649500      -0.00344400
Ge       6.12504376       9.52088134      10.59217770  F        0       0.00000000       0.00000000       0.00000000       0.00000000       0.00000000       0.00000000
Ge       5.32809962       5.93656271      12.32673700  F        0       0.00000000       0.00000000       0.00000000       0.00000000       0.00000000       0.00000000
Ge       8.56518806       1.91660850      13.89408238  F        0       0.00000000       0.00000000       0.00000000       0.00000000       0.00000000       0.00000000
Ge      -0.48257057      10.67952354      18.24454686  T        1      -0.00238600       0.02564500      -0.01208200      -0.00238600       0.02564500      -0.01208200
Ge       2.09101094       9.95651691      10.75939233  F        0       0.00000000       0.00000000       0.00000000       0.00000000       0.00000000       0.00000000
Ge       2.56602849       3.17608135      10.95120199  F        0       0.00000000       0.00000000       0.00000000       0.00000000       0.00000000       0.00000000
Ge       2.96830930      12.01998066      14.23988826  F        0       0.00000000       0.00000000       0.00000000       0.00000000       0.00000000       0.00000000
Ge       6.20539762       8.00002639      15.80723507  F        0       0.00000000       0.00000000       0.00000000       0.00000000       0.00000000       0.00000000
Ge       0.10768495       4.11584949      18.32924698  T        1      -0.00298800      -0.00897800       0.00411800      -0.00298800      -0.00897800       0.00411800
Ge       5.52135171       2.03737586      11.20863397  F        0       0.00000000       0.00000000       0.00000000       0.00000000       0.00000000       0.00000000
Ge       5.92363228      10.88127582      14.49732144  F        0       0.00000000       0.00000000       0.00000000       0.00000000       0.00000000       0.00000000
Ge      -0.10512955       6.69965555      17.14276456  T        1       0.01090200      -0.00757900      -0.01274100       0.01090200      -0.00757900      -0.01274100
Ge       2.97655964       2.83620512      18.49917779  T        1      -0.00123900       0.00650400       0.00415700      -0.00123900       0.00650400       0.00415700
Ge       6.39864965       4.10083978      14.68913014  F        0       0.00000000       0.00000000       0.00000000       0.00000000       0.00000000       0.00000000
Ge       0.19682785       0.12431051      17.14153357  T        1       0.00192600       0.00120500       0.00792900       0.00192600       0.00120500       0.00792900
Ge      -0.07552730      12.14074819      11.55444057  F        0       0.00000000       0.00000000       0.00000000       0.00000000       0.00000000       0.00000000
Ge       3.16156138       8.12079399      13.12178476  F        0       0.00000000       0.00000000       0.00000000       0.00000000       0.00000000       0.00000000
Ge      -0.87247144       8.55642955      13.28900201  F        0       0.00000000       0.00000000       0.00000000       0.00000000       0.00000000       0.00000000
Ge       2.36461724       4.53647583      14.85634668  F        0       0.00000000       0.00000000       0.00000000       0.00000000       0.00000000       0.00000000
Ge       5.67021558       0.75910345      16.62729101  T        1       0.00215100       0.00840200       0.00299900       0.00215100       0.00840200       0.00299900
Ge       5.29528417      12.57638400      10.86098464  F        0       0.00000000       0.00000000       0.00000000       0.00000000       0.00000000       0.00000000
Nb       3.30421485       0.59231417      12.08143861  F        0       0.00000000       0.00000000       0.00000000       0.00000000       0.00000000       0.00000000
Nb       3.70649566       9.43621318      15.37012536  F        0       0.00000000       0.00000000       0.00000000       0.00000000       0.00000000       0.00000000
Nb       6.87787042       5.49844085      16.89274746  T        1       0.01520500       0.00056600       0.00570200       0.01520500       0.00056600       0.00570200
Nb       0.06712641       4.61226862      10.51409299  F        0       0.00000000       0.00000000       0.00000000       0.00000000       0.00000000       0.00000000
Nb       4.78316535       4.62114351      10.07839735  F        0       0.00000000       0.00000000       0.00000000       0.00000000       0.00000000       0.00000000