51
Lattice="10.35302448272705 0.0 -1.6648933386513337e-15 1.3068651114620314e-15 8.1266508102417 -1.3068651114620314e-15 0.0 0.0 35.25967788696289" Properties=species:S:1:pos:R:3:move_mask:L:1:tags:I:1:DFT_forces:R:3:forces:R:3:magmoms:R:1 DFT_energy=-334.3770496 energy=-334.3770496 dipole="_JSON [[0.0, 0.0, 0.0]]" magmom=0.0 free_energy=-334.35868643 pbc="T T T"
Hf       3.74329027       1.69042851       9.24258870  F        0       0.00000000       0.00000000       0.00000000       0.00603600      -0.05361100       0.28442400       0.00000000
Hf       3.74329027       2.65781571      12.20557946  F        0       0.00000000       0.00000000       0.00000000       0.02162600      -0.48033400      -0.66146500       0.00000000
Hf       3.74329027       5.49304487      12.20557946  F        0       0.00000000       0.00000000       0.00000000       0.02341000       0.48306900      -0.66357700       0.00000000
Hf       3.74329027       6.46043207       9.24258870  F        0       0.00000000       0.00000000       0.00000000       0.00589400       0.05469200       0.28538100       0.00000000
Hf       6.33154639       1.69042851      13.65004701  F        0       0.00000000       0.00000000       0.00000000       0.06878200       0.16337800      -0.14388100       0.00000000
Hf       6.33030810       2.64590593      16.50267405  T        1       0.00008500       0.00572400      -0.00395200       0.00008500       0.00572400      -0.00395200       0.00000000
Hf       6.32756086       5.50048558      16.50297968  T        1       0.00397300       0.00011500      -0.00555700       0.00397300       0.00011500      -0.00555700       0.00000000
Hf       6.33154639       6.46043207      13.65004701  F        0       0.00000000       0.00000000       0.00000000       0.07405500      -0.16620300      -0.14041900       0.00000000
Al       3.74527748       2.16507557      15.08113749  T        1      -0.00225100       0.00072100      -0.02727000      -0.00225100       0.00072100      -0.02727000       0.00000000
Al       3.74625597       5.98407663      15.08109618  T        1      -0.00772500       0.00416100      -0.02468700      -0.00772500       0.00416100      -0.02468700       0.00000000
Al       5.00653383       0.01210500      11.47907609  F        0       0.00000000       0.00000000       0.00000000      -0.04208600      -0.00024200      -0.17812200       0.00000000
Al       7.65655907       0.01210500      11.47907609  F        0       0.00000000       0.00000000       0.00000000       0.03740000       0.00270100      -0.18609500       0.00000000
Al       6.33154639       2.16838981      10.65457315  F        0       0.00000000       0.00000000       0.00000000      -0.00145900       0.01301800      -0.53326700       0.00000000
Al       6.33154639       5.98247101      10.65457315  F        0       0.00000000       0.00000000       0.00000000      -0.00327600      -0.01129900      -0.53464000       0.00000000
Al       7.57926033       0.01095988      15.82036389  T        1       0.00426500      -0.00333800      -0.01552500       0.00426500      -0.00333800      -0.01552500       0.00000000
Al       5.08910858       0.01148597      15.78630222  T        1       0.01124300       0.00029700       0.00223400       0.01124300       0.00029700       0.00223400       0.00000000
Co       3.75175268       0.01097991      13.60208763  T        1      -0.00360400      -0.00249500      -0.02499900      -0.00360400      -0.00249500      -0.02499900       0.00000000
Co       7.67894634       4.07543041       9.93986863  F        0       0.00000000       0.00000000       0.00000000       0.81835400      -0.00253400       0.63886100       0.00000000
Co       4.98414668       4.07543041       9.93986863  F        0       0.00000000       0.00000000       0.00000000      -0.82108900      -0.00173200       0.64067600       0.00000000
Co       3.89859637       4.07384884      16.61910023  T        1       0.01055000       0.00198200       0.03695900       0.01055000       0.00198200       0.03695900       0.00000000
Co       6.33154639       0.01210500       9.22163934  F        0       0.00000000       0.00000000       0.00000000       0.00364100      -0.00350300       0.82597900       0.00000000
Co       5.09069010       4.07543041      14.34732789  F        0       0.00000000       0.00000000       0.00000000       0.01810300      -0.00867500      -0.01356600       0.00000000
Co       7.57240280       4.07543041      14.34732789  F        0       0.00000000       0.00000000       0.00000000      -0.05058800      -0.00922000      -0.16481400       0.00000000
Co       6.33154639       4.07543041      12.20927781  F        0       0.00000000       0.00000000       0.00000000      -0.03231600      -0.00119600      -0.18827200       0.00000000
Hf       8.91980251       1.69042851       9.24258870  F        0       0.00000000       0.00000000       0.00000000      -0.01641700      -0.03658600       0.26013200       0.00000000
Hf       8.91980251       2.65781571      12.20557946  F        0       0.00000000       0.00000000       0.00000000      -0.02645300      -0.45965600      -0.56850300       0.00000000
Hf       8.91980251       5.49304487      12.20557946  F        0       0.00000000       0.00000000       0.00000000      -0.02556100       0.46408900      -0.56535800       0.00000000
Hf       8.91980251       6.46043207       9.24258870  F        0       0.00000000       0.00000000       0.00000000      -0.01657100       0.03728700       0.26016700       0.00000000
Hf       1.15503439       1.69042851      13.65004701  F        0       0.00000000       0.00000000       0.00000000      -0.01583200       0.14726500      -0.14947400       0.00000000
Hf       1.19973803       2.59679332      16.49605967  T        1      -0.01570400      -0.00120300       0.00938500      -0.01570400      -0.00120300       0.00938500       0.00000000
Hf       1.20258545       5.54633192      16.49401135  T        1      -0.02794900       0.01744400       0.00473700      -0.02794900       0.01744400       0.00473700       0.00000000
Hf       1.15503439       6.46043207      13.65004701  F        0       0.00000000       0.00000000       0.00000000      -0.01255300      -0.14928400      -0.15065700       0.00000000
Al       8.94044918       2.15732431      15.08886997  T        1       0.00093800       0.01327400      -0.00973900       0.00093800       0.01327400      -0.00973900       0.00000000
Al       8.93942020       5.99061164      15.09012532  T        1       0.00450600      -0.00465200      -0.01067600       0.00450600      -0.00465200      -0.01067600       0.00000000
Al      10.18304619       0.01210500      11.47907609  F        0       0.00000000       0.00000000       0.00000000      -0.03923100      -0.00014700      -0.11917300       0.00000000
Al       2.48004659       0.01210500      11.47907609  F        0       0.00000000       0.00000000       0.00000000       0.03262200       0.00225300      -0.13483300       0.00000000
Al       1.15503439       2.16838981      10.65457315  F        0       0.00000000       0.00000000       0.00000000      -0.00764900       0.00156500      -0.51518200       0.00000000
Al       1.15503439       5.98247101      10.65457315  F        0       0.00000000       0.00000000       0.00000000      -0.00908300       0.00032400      -0.51662800       0.00000000
Al       2.41492488       0.01074336      15.80648586  T        1       0.01073700      -0.00090300      -0.01152300       0.01073700      -0.00090300      -0.01152300       0.00000000
Al      10.24010375       0.00946217      15.83269755  T        1       0.01921400       0.00487600      -0.01197800       0.01921400       0.00487600      -0.01197800       0.00000000
Co       8.90394443       0.00992443      13.60196600  T        1       0.00644900       0.00136600       0.01584400       0.00644900       0.00136600       0.01584400       0.00000000
Co       2.50243410       4.07543041       9.93986863  F        0       0.00000000       0.00000000       0.00000000       0.80954800      -0.00251500       0.67280400       0.00000000
Co      10.16065916       4.07543041       9.93986863  F        0       0.00000000       0.00000000       0.00000000      -0.81837000      -0.00182500       0.67569800       0.00000000
Co       8.40458999       4.07391970      16.60175589  T        1      -0.00966600      -0.00353500       0.00599600      -0.00966600      -0.00353500       0.00599600       0.00000000
Co       1.15503439       0.01210500       9.22163934  F        0       0.00000000       0.00000000       0.00000000       0.00534600      -0.00333800       0.80726100       0.00000000
Co      10.26720270       4.07543041      14.34732789  F        0       0.00000000       0.00000000       0.00000000      -0.06102100      -0.01071100       0.45115000       0.00000000
Co       2.39589056       4.07543041      14.34732789  F        0       0.00000000       0.00000000       0.00000000       0.08200900      -0.00696100       0.40291500       0.00000000
Co       1.15503439       4.07543041      12.20927781  F        0       0.00000000       0.00000000       0.00000000       0.01564400      -0.00149800       0.01001700       0.00000000
H        5.15345541       4.06898889      17.64486195  T        2       0.00234800       0.00681500       0.01550800       0.00234800       0.00681500       0.01550800       0.00000000
C        2.52874837       4.07287242      17.78431719  T        2       0.00389000      -0.00475700      -0.04027800       0.00389000      -0.00475700      -0.04027800       0.00000000
C        1.26460034       4.07094748      18.17429599  T        2      -0.03421300       0.00553600       0.00798200      -0.03421300       0.00553600       0.00798200       0.00000000
51
Lattice="10.35302448272705 0.0 -1.6648933386513337e-15 1.3068651114620314e-15 8.1266508102417 -1.3068651114620314e-15 0.0 0.0 35.25967788696289" Properties=species:S:1:pos:R:3:move_mask:L:1:tags:I:1:DFT_forces:R:3:forces:R:3 DFT_energy=-333.17741613 energy=-333.17741613 pbc="T T T"
Hf       3.74329027       1.69042851       9.24258870  F        0       0.00000000       0.00000000       0.00000000       0.00000000       0.00000000       0.00000000
Hf       3.74329027       2.65781571      12.20557946  F        0       0.00000000       0.00000000       0.00000000       0.00000000       0.00000000       0.00000000
Hf       3.74329027       5.49304487      12.20557946  F        0       0.00000000       0.00000000       0.00000000       0.00000000       0.00000000       0.00000000
Hf       3.74329027       6.46043207       9.24258870  F        0       0.00000000       0.00000000       0.00000000       0.00000000       0.00000000       0.00000000
Hf       6.33154639       1.69042851      13.65004701  F        0       0.00000000       0.00000000       0.00000000       0.00000000       0.00000000       0.00000000
Hf       6.20130546       2.50244095      16.60934067  T        1       0.41011700       0.09114900      -0.24293900       0.41011700       0.09114900      -0.24293900
Hf       6.45315934       5.37519043      16.42201831  T        1       0.07190500       0.10125500       0.07522200       0.07190500       0.10125500       0.07522200
Hf       6.33154639       6.46043207      13.65004701  F        0       0.00000000       0.00000000       0.00000000       0.00000000       0.00000000       0.00000000
Al       3.69247489       2.12864915      15.04639848  T        1       0.02267000      -0.00352900       0.03248700       0.02267000      -0.00352900       0.03248700
Al       3.72778315       5.96761477      15.06197488  T        1       0.02100400      -0.06086600       0.07688800       0.02100400      -0.06086600       0.07688800
Al       5.00653383       0.01210500      11.47907609  F        0       0.00000000       0.00000000       0.00000000       0.00000000       0.00000000       0.00000000
Al       7.65655907       0.01210500      11.47907609  F        0       0.00000000       0.00000000       0.00000000       0.00000000       0.00000000       0.00000000
Al       6.33154639       2.16838981      10.65457315  F        0       0.00000000       0.00000000       0.00000000       0.00000000       0.00000000       0.00000000
Al       6.33154639       5.98247101      10.65457315  F        0       0.00000000       0.00000000       0.00000000       0.00000000       0.00000000       0.00000000
Al       7.55748164      -0.01967188      15.84597704  T        1       0.02300900      -0.02556200      -0.05361900       0.02300900      -0.02556200      -0.05361900
Al       5.03910566      -0.03981396      15.82959625  T        1       0.00439500       0.01291500       0.06001900       0.00439500       0.01291500       0.06001900
Co       3.73923260      -0.01261264      13.60801134  T        1       0.01718300      -0.01571600       0.00024400       0.01718300      -0.01571600       0.00024400
Co       7.67894634       4.07543041       9.93986863  F        0       0.00000000       0.00000000       0.00000000       0.00000000       0.00000000       0.00000000
Co       4.98414668       4.07543041       9.93986863  F        0       0.00000000       0.00000000       0.00000000       0.00000000       0.00000000       0.00000000
Co       4.34746719       4.00047875      16.56915719  T        1       0.27201000      -0.19496800       0.09911800       0.27201000      -0.19496800       0.09911800
Co       6.33154639       0.01210500       9.22163934  F        0       0.00000000       0.00000000       0.00000000       0.00000000       0.00000000       0.00000000
Co       5.09069010       4.07543041      14.34732789  F        0       0.00000000       0.00000000       0.00000000       0.00000000       0.00000000       0.00000000
Co       7.57240280       4.07543041      14.34732789  F        0       0.00000000       0.00000000       0.00000000       0.00000000       0.00000000       0.00000000
Co       6.33154639       4.07543041      12.20927781  F        0       0.00000000       0.00000000       0.00000000       0.00000000       0.00000000       0.00000000
Hf       8.91980251       1.69042851       9.24258870  F        0       0.00000000       0.00000000       0.00000000       0.00000000       0.00000000       0.00000000
Hf       8.91980251       2.65781571      12.20557946  F        0       0.00000000       0.00000000       0.00000000       0.00000000       0.00000000       0.00000000
Hf       8.91980251       5.49304487      12.20557946  F        0       0.00000000       0.00000000       0.00000000       0.00000000       0.00000000       0.00000000
Hf       8.91980251       6.46043207       9.24258870  F        0       0.00000000       0.00000000       0.00000000       0.00000000       0.00000000       0.00000000
Hf       1.15503439       1.69042851      13.65004701  F        0       0.00000000       0.00000000       0.00000000       0.00000000       0.00000000       0.00000000
Hf       0.85362984       2.48715233      16.67656595  T        1      -0.05760100       0.03349900      -0.00070600      -0.05760100       0.03349900      -0.00070600
Hf       1.09668478       5.28068903      16.56426253  T        1      -0.11538600       0.03842000       0.01008400      -0.11538600       0.03842000       0.01008400
Hf       1.15503439       6.46043207      13.65004701  F        0       0.00000000       0.00000000       0.00000000       0.00000000       0.00000000       0.00000000
Al       8.83387894       2.12152534      15.05691318  T        1       0.01365900      -0.02444300      -0.04548700       0.01365900      -0.02444300      -0.04548700
Al       8.92618946       5.99013071      15.04408809  T        1       0.00605500      -0.00766700      -0.02681600       0.00605500      -0.00766700      -0.02681600
Al      10.18304619       0.01210500      11.47907609  F        0       0.00000000       0.00000000       0.00000000       0.00000000       0.00000000       0.00000000
Al       2.48004659       0.01210500      11.47907609  F        0       0.00000000       0.00000000       0.00000000       0.00000000       0.00000000       0.00000000
Al       1.15503439       2.16838981      10.65457315  F        0       0.00000000       0.00000000       0.00000000       0.00000000       0.00000000       0.00000000
Al       1.15503439       5.98247101      10.65457315  F        0       0.00000000       0.00000000       0.00000000       0.00000000       0.00000000       0.00000000
Al       2.37799244      -0.03815899      15.82839671  T        1       0.01448500      -0.01007600       0.00146000       0.01448500      -0.01007600       0.00146000
Al      10.22138518      -0.06562459      15.86898737  T        1       0.00817100      -0.01783000       0.00881400       0.00817100      -0.01783000       0.00881400
Co       8.92306392       0.00070808      13.62380814  T        1       0.02615800      -0.01769500      -0.01906100       0.02615800      -0.01769500      -0.01906100
Co       2.50243410       4.07543041       9.93986863  F        0       0.00000000       0.00000000       0.00000000       0.00000000       0.00000000       0.00000000
Co      10.16065916       4.07543041       9.93986863  F        0       0.00000000       0.00000000       0.00000000       0.00000000       0.00000000       0.00000000
Co       9.06400109       4.03648078      16.50430258  T        1      -0.09725500      -0.01696700      -0.04747800      -0.09725500      -0.01696700      -0.04747800
Co       1.15503439       0.01210500       9.22163934  F        0       0.00000000       0.00000000       0.00000000       0.00000000       0.00000000       0.00000000
Co      10.26720270       4.07543041      14.34732789  F        0       0.00000000       0.00000000       0.00000000       0.00000000       0.00000000       0.00000000
Co       2.39589056       4.07543041      14.34732789  F        0       0.00000000       0.00000000       0.00000000       0.00000000       0.00000000       0.00000000
Co       1.15503439       4.07543041      12.20927781  F        0       0.00000000       0.00000000       0.00000000       0.00000000       0.00000000       0.00000000
H        9.98195037       4.01905503      17.77616611  T        2      -0.18289300       0.00039500      -0.00361900      -0.18289300       0.00039500      -0.00361900
C        2.06604601       3.71579065      18.03827554  T        2      -0.44263400       0.05483300       0.37765600      -0.44263400       0.05483300       0.37765600
C        3.31015700       3.39511898      17.87571532  T        2      -0.25114700       0.62799700       0.29234600      -0.25114700       0.62799700       0.29234600
51
Lattice="10.35302448272705 0.0 -1.6648933386513337e-15 1.3068651114620314e-15 8.1266508102417 -1.3068651114620314e-15 0.0 0.0 35.25967788696289" Properties=species:S:1:pos:R:3:move_mask:L:1:tags:I:1:DFT_forces:R:3:forces:R:3 DFT_energy=-333.72342754 energy=-333.72342754 pbc="T T T"
Hf       3.74329027       1.69042851       9.24258870  F        0       0.00000000       0.00000000       0.00000000       0.00000000       0.00000000       0.00000000
Hf       3.74329027       2.65781571      12.20557946  F        0       0.00000000       0.00000000       0.00000000       0.00000000       0.00000000       0.00000000
Hf       3.74329027       5.49304487      12.20557946  F        0       0.00000000       0.00000000       0.00000000       0.00000000       0.00000000       0.00000000
Hf       3.74329027       6.46043207       9.24258870  F        0       0.00000000       0.00000000       0.00000000       0.00000000       0.00000000       0.00000000
Hf       6.33154639       1.69042851      13.65004701  F        0       0.00000000       0.00000000       0.00000000       0.00000000       0.00000000       0.00000000
Hf       5.73380037       2.38198314      16.88189711  T        1       0.02230400       0.00716000       0.03171300       0.02230400       0.00716000       0.03171300
Hf       6.35855575       5.26094084      16.33987841  T        1       0.00643200       0.00415500      -0.00738500       0.00643200       0.00415500      -0.00738500
Hf       6.33154639       6.46043207      13.65004701  F        0       0.00000000       0.00000000       0.00000000       0.00000000       0.00000000       0.00000000
Al       3.66218334       2.12667697      14.99711575  T        1      -0.01229900      -0.01022800       0.00381300      -0.01229900      -0.01022800       0.00381300
Al       3.70250505       6.02195174      14.98510476  T        1       0.00028400       0.02514600      -0.03952900       0.00028400       0.02514600      -0.03952900
Al       5.00653383       0.01210500      11.47907609  F        0       0.00000000       0.00000000       0.00000000       0.00000000       0.00000000       0.00000000
Al       7.65655907       0.01210500      11.47907609  F        0       0.00000000       0.00000000       0.00000000       0.00000000       0.00000000       0.00000000
Al       6.33154639       2.16838981      10.65457315  F        0       0.00000000       0.00000000       0.00000000       0.00000000       0.00000000       0.00000000
Al       6.33154639       5.98247101      10.65457315  F        0       0.00000000       0.00000000       0.00000000       0.00000000       0.00000000       0.00000000
Al       7.53741498      -0.00182189      15.91718761  T        1      -0.01024100      -0.01141100      -0.01370600      -0.01024100      -0.01141100      -0.01370600
Al       5.04127453      -0.06694193      15.76170303  T        1      -0.02383600       0.01108300       0.02187400      -0.02383600       0.01108300       0.02187400
Co       3.72309864       0.00026753      13.60277255  T        1       0.01374700      -0.00244300      -0.01561100       0.01374700      -0.00244300      -0.01561100
Co       7.67894634       4.07543041       9.93986863  F        0       0.00000000       0.00000000       0.00000000       0.00000000       0.00000000       0.00000000
Co       4.98414668       4.07543041       9.93986863  F        0       0.00000000       0.00000000       0.00000000       0.00000000       0.00000000       0.00000000
Co       4.00716262       4.20410584      16.46940785  T        1       0.06636300       0.03747000      -0.01423200       0.06636300       0.03747000      -0.01423200
Co       6.33154639       0.01210500       9.22163934  F        0       0.00000000       0.00000000       0.00000000       0.00000000       0.00000000       0.00000000
Co       5.09069010       4.07543041      14.34732789  F        0       0.00000000       0.00000000       0.00000000       0.00000000       0.00000000       0.00000000
Co       7.57240280       4.07543041      14.34732789  F        0       0.00000000       0.00000000       0.00000000       0.00000000       0.00000000       0.00000000
Co       6.33154639       4.07543041      12.20927781  F        0       0.00000000       0.00000000       0.00000000       0.00000000       0.00000000       0.00000000
Hf       8.91980251       1.69042851       9.24258870  F        0       0.00000000       0.00000000       0.00000000       0.00000000       0.00000000       0.00000000
Hf       8.91980251       2.65781571      12.20557946  F        0       0.00000000       0.00000000       0.00000000       0.00000000       0.00000000       0.00000000
Hf       8.91980251       5.49304487      12.20557946  F        0       0.00000000       0.00000000       0.00000000       0.00000000       0.00000000       0.00000000
Hf       8.91980251       6.46043207       9.24258870  F        0       0.00000000       0.00000000       0.00000000       0.00000000       0.00000000       0.00000000
Hf       1.15503439       1.69042851      13.65004701  F        0       0.00000000       0.00000000       0.00000000       0.00000000       0.00000000       0.00000000
Hf       0.93374890       2.45785917      16.66418103  T        1      -0.19444300       0.00710300      -0.04210200      -0.19444300       0.00710300      -0.04210200
Hf       1.22334328       5.25676999      16.55780302  T        1       0.10050300      -0.06366100      -0.01153700       0.10050300      -0.06366100      -0.01153700
Hf       1.15503439       6.46043207      13.65004701  F        0       0.00000000       0.00000000       0.00000000       0.00000000       0.00000000       0.00000000
Al       8.82842712       2.14305815      15.10363130  T        1      -0.02017700      -0.01270600      -0.02411200      -0.02017700      -0.01270600      -0.02411200
Al       8.92066194       5.98978271      15.06712060  T        1       0.01645600      -0.02406800       0.00398600       0.01645600      -0.02406800       0.00398600
Al      10.18304619       0.01210500      11.47907609  F        0       0.00000000       0.00000000       0.00000000       0.00000000       0.00000000       0.00000000
Al       2.48004659       0.01210500      11.47907609  F        0       0.00000000       0.00000000       0.00000000       0.00000000       0.00000000       0.00000000
Al       1.15503439       2.16838981      10.65457315  F        0       0.00000000       0.00000000       0.00000000       0.00000000       0.00000000       0.00000000
Al       1.15503439       5.98247101      10.65457315  F        0       0.00000000       0.00000000       0.00000000       0.00000000       0.00000000       0.00000000
Al       2.36324774      -0.03579326      15.82670412  T        1      -0.01840900      -0.01691600      -0.02396100      -0.01840900      -0.01691600      -0.02396100
Al      10.21381737      -0.05264183      15.85403058  T        1      -0.02142200      -0.03189700       0.01599100      -0.02142200      -0.03189700       0.01599100
Co       8.89301880       0.01467148      13.63682011  T        1      -0.00966700      -0.01406800      -0.00320700      -0.00966700      -0.01406800      -0.00320700
Co       2.50243410       4.07543041       9.93986863  F        0       0.00000000       0.00000000       0.00000000       0.00000000       0.00000000       0.00000000
Co      10.16065916       4.07543041       9.93986863  F        0       0.00000000       0.00000000       0.00000000       0.00000000       0.00000000       0.00000000
Co       9.17890252       4.04498803      16.54769817  T        1       0.04150000      -0.04906400       0.00322000       0.04150000      -0.04906400       0.00322000
Co       1.15503439       0.01210500       9.22163934  F        0       0.00000000       0.00000000       0.00000000       0.00000000       0.00000000       0.00000000
Co      10.26720270       4.07543041      14.34732789  F        0       0.00000000       0.00000000       0.00000000       0.00000000       0.00000000       0.00000000
Co       2.39589056       4.07543041      14.34732789  F        0       0.00000000       0.00000000       0.00000000       0.00000000       0.00000000       0.00000000
Co       1.15503439       4.07543041      12.20927781  F        0       0.00000000       0.00000000       0.00000000       0.00000000       0.00000000       0.00000000
H       10.18157514       4.00118548      17.80000677  T        2       0.00622500       0.03332000       0.04357200       0.00622500       0.03332000       0.04357200
C        2.57370961       3.66702930      17.58980932  T        2      -0.00542100      -0.10777100       0.05855700      -0.00542100      -0.10777100       0.05855700
C        3.56312448       2.69366323      17.56153319  T        2       0.10018800       0.32885700       0.31488900       0.10018800       0.32885700       0.31488900
51
Lattice="10.35302448272705 0.0 -1.6648933386513337e-15 1.3068651114620314e-15 8.1266508102417 -1.3068651114620314e-15 0.0 0.0 35.25967788696289" Properties=species:S:1:pos:R:3:move_mask:L:1:tags:I:1:DFT_forces:R:3:forces:R:3 DFT_energy=-332.84719213 energy=-332.84719213 pbc="T T T"
Hf       3.74329027       1.69042851       9.24258870  F        0       0.00000000       0.00000000       0.00000000       0.00000000       0.00000000       0.00000000
Hf       3.74329027       2.65781571      12.20557946  F        0       0.00000000       0.00000000       0.00000000       0.00000000       0.00000000       0.00000000
Hf       3.74329027       5.49304487      12.20557946  F        0       0.00000000       0.00000000       0.00000000       0.00000000       0.00000000       0.00000000
Hf       3.74329027       6.46043207       9.24258870  F        0       0.00000000       0.00000000       0.00000000       0.00000000       0.00000000       0.00000000
Hf       6.33154639       1.69042851      13.65004701  F        0       0.00000000       0.00000000       0.00000000       0.00000000       0.00000000       0.00000000
Hf       5.71163913       2.37166090      16.85501541  T        1       0.01642700       0.00515500       0.00068800       0.01642700       0.00515500       0.00068800
Hf       6.35694201       5.26318469      16.35055055  T        1      -0.00814900      -0.03160000       0.03272500      -0.00814900      -0.03160000       0.03272500
Hf       6.33154639       6.46043207      13.65004701  F        0       0.00000000       0.00000000       0.00000000       0.00000000       0.00000000       0.00000000
Al       3.66972150       2.13040562      14.98860100  T        1      -0.09743000      -0.02507300       0.08719500      -0.09743000      -0.02507300       0.08719500
Al       3.69980108       5.99791409      15.02572821  T        1      -0.01845600       0.08357400      -0.08675800      -0.01845600       0.08357400      -0.08675800
Al       5.00653383       0.01210500      11.47907609  F        0       0.00000000       0.00000000       0.00000000       0.00000000       0.00000000       0.00000000
Al       7.65655907       0.01210500      11.47907609  F        0       0.00000000       0.00000000       0.00000000       0.00000000       0.00000000       0.00000000
Al       6.33154639       2.16838981      10.65457315  F        0       0.00000000       0.00000000       0.00000000       0.00000000       0.00000000       0.00000000