58
Lattice="7.835806846618652 5.540308570905594e-16 4.52400541305542 -3.917903423309326 12.892705917358398 2.26200270652771 -0.0 4.432246856724475e-15 36.19204330444336" Properties=species:S:1:pos:R:3:move_mask:L:1:tags:I:1:DFT_forces:R:3:forces:R:3:magmoms:R:1 DFT_energy=-307.97374535 energy=-307.97374535 dipole="_JSON [[0.0, 0.0, 0.0]]" magmom=0.0 free_energy=-307.98022962 pbc="T T T"
Hf      -1.12450693       5.20175166      17.77373487  T        1      -0.00467400       0.01931000       0.00212300      -0.00467400       0.01931000       0.00212300       0.00000000
Hf      -1.30778812      11.52517940      18.07843858  T        1      -0.02042700       0.00384600      -0.00499300      -0.02042700       0.00384600      -0.00499300       0.00000000
Hf      -1.23757806       8.36827627      18.00962535  T        1       0.00893300       0.00483300      -0.03346500       0.00893300       0.00483300      -0.03346500       0.00000000
Hf       2.60833793       1.83683286      15.80676810  T        1       0.00800000       0.00174300       0.00156200       0.00800000       0.00174300       0.00156200       0.00000000
Cu      -0.04953410       3.01801849      15.87449569  T        1       0.01434000      -0.01857800       0.00880100       0.01434000      -0.01857800       0.00880100       0.00000000
Cu       0.04429704      10.28226098      20.29372603  T        1       0.02094800      -0.00486300       0.00439700       0.02094800      -0.00486300       0.00439700       0.00000000
Cu       5.15579987       6.63470149      20.51738740  T        1       0.00161700      -0.00346700      -0.00017700       0.00161700      -0.00346700      -0.00017700       0.00000000
Cu      -2.57056496      12.82573240      15.76071271  F        0       0.00000000       0.00000000       0.00000000       0.00167000       0.00770000      -0.04754700       0.00000000
Sn       0.04137077       6.75788228      15.76071271  F        0       0.00000000       0.00000000       0.00000000       0.20760100       0.33030900      -0.38706400       0.00000000
Sn       0.02008071       0.22653115      15.82955548  T        1      -0.00634500       0.01198700       0.00004800      -0.00634500       0.01198700       0.00004800       0.00000000
Sn       1.27144402       3.55066804      18.12606803  T        1      -0.01196500       0.01141300       0.01570400      -0.01196500       0.01141300       0.01570400       0.00000000
Sn      -2.57056496       9.98105876      15.76071271  F        0       0.00000000       0.00000000       0.00000000      -0.15951600      -0.19610900      -0.10843600       0.00000000
Hf      -1.26459710       5.10455315      13.49870977  F        0       0.00000000       0.00000000       0.00000000      -0.27477900       0.04073300       0.47491000       0.00000000
Hf      -1.26459710      11.55090635      13.49870977  F        0       0.00000000       0.00000000       0.00000000       0.15980400       0.24894900      -0.23443300       0.00000000
Hf      -1.26459710       8.32772987      13.49870977  F        0       0.00000000       0.00000000       0.00000000       0.21482400       0.11981900      -0.20143800       0.00000000
Hf       2.65330633       1.88137738      11.23670706  F        0       0.00000000       0.00000000       0.00000000      -0.37274000      -0.35901300       0.57309800       0.00000000
Cu       0.04137077       3.15620230      11.23670873  F        0       0.00000000       0.00000000       0.00000000       0.18093500      -0.42730500      -0.30641400       0.00000000
Cu       0.04137077       9.60255544      15.76071271  F        0       0.00000000       0.00000000       0.00000000      -0.11233700       0.00223300       0.20570700       0.00000000
Cu       5.26524188       6.37937896      15.76071414  F        0       0.00000000       0.00000000       0.00000000      -0.09241900      -0.00114200       0.15177100       0.00000000
Cu      -2.57056496      12.82573240      11.23670873  F        0       0.00000000       0.00000000       0.00000000      -0.13687900      -0.20993800       0.23298500       0.00000000
Sn       0.04137077       6.75788228      11.23670873  F        0       0.00000000       0.00000000       0.00000000       0.18934800      -0.10912300      -0.37717000       0.00000000
Sn       0.04137065       0.31152932      11.23670706  F        0       0.00000000       0.00000000       0.00000000      -0.00184900       0.28700500       0.02200900       0.00000000
Sn       1.34733846       3.53470556      13.49870977  F        0       0.00000000       0.00000000       0.00000000      -0.04629700       0.24545300       0.00537800       0.00000000
Sn      -2.57056496       9.98105876      11.23670873  F        0       0.00000000       0.00000000       0.00000000       0.12150300      -0.04517500      -0.21558000       0.00000000
Hf       2.75474277       5.17738586      20.04399853  T        1       0.00965800      -0.00461300      -0.00709600       0.00965800      -0.00461300      -0.00709600       0.00000000
Hf       2.59048820      11.58782707      20.35661382  T        1       0.02125400       0.00642100       0.02623800       0.02125400       0.00642100       0.02623800       0.00000000
Hf       2.48514874       8.33621419      20.47540203  T        1       0.02372300      -0.01048200      -0.03267400       0.02372300      -0.01048200      -0.03267400       0.00000000
Hf       6.52200782       1.85041519      18.09286177  T        1       0.00719600      -0.00447200       0.00379500       0.00719600      -0.00447200       0.00379500       0.00000000
Cu       3.88918737       2.99773930      18.11723065  T        1       0.01024200      -0.00422300       0.00588900       0.01024200      -0.00422300       0.00588900       0.00000000
Cu       3.84299072      10.27633325      22.49353528  T        1       0.02238200      -0.00653300       0.00129000       0.02238200      -0.00653300       0.00129000       0.00000000
Cu       1.18997643       6.65128635      18.24656811  T        1       0.00955100       0.00287400       0.00247900       0.00955100       0.00287400       0.00247900       0.00000000
Cu       1.34733846      12.82573240      18.02271566  F        0       0.00000000       0.00000000       0.00000000       0.00991700       0.00822100      -0.05628100       0.00000000
Sn       3.95927431       6.75788228      18.02271566  F        0       0.00000000       0.00000000       0.00000000       0.00449800       0.43234500      -0.00881000       0.00000000
Sn       3.89054549       0.24126542      18.05638269  T        1      -0.00274600       0.01138800       0.01459300      -0.00274600       0.01138800       0.01459300       0.00000000
Sn       5.17091204       3.56866974      20.41113401  T        1      -0.00822800      -0.00348900       0.01134700      -0.00822800      -0.00348900       0.01134700       0.00000000
Sn       1.34733846       9.98105876      18.02271566  F        0       0.00000000       0.00000000       0.00000000       0.19119400      -0.15277700      -0.10153800       0.00000000
Hf       2.65330651       5.10455315      15.76071271  F        0       0.00000000       0.00000000       0.00000000      -0.25827000       0.07076400       0.47120400       0.00000000
Hf       2.65330651      11.55090635      15.76071271  F        0       0.00000000       0.00000000       0.00000000       0.12327700       0.24432500      -0.27121000       0.00000000
Hf       2.65330651       8.32772987      15.76071271  F        0       0.00000000       0.00000000       0.00000000       0.05094200       0.15407000      -0.27000300       0.00000000
Hf       6.57120993       1.88137738      13.49871000  F        0       0.00000000       0.00000000       0.00000000      -0.30498100      -0.35401500       0.60637300       0.00000000
Cu       3.95927431       3.15620230      13.49870977  F        0       0.00000000       0.00000000       0.00000000       0.17841500      -0.41398300      -0.31010500       0.00000000
Cu       3.95927431       9.60255544      18.02271566  F        0       0.00000000       0.00000000       0.00000000      -0.15299800      -0.08534400       0.27567600       0.00000000
Cu       1.34733846       6.37937896      13.49870977  F        0       0.00000000       0.00000000       0.00000000      -0.11714400       0.05681000       0.19332900       0.00000000
Cu       1.34733846      12.82573240      13.49870977  F        0       0.00000000       0.00000000       0.00000000      -0.13746300      -0.19957700       0.22903700       0.00000000
Sn       3.95927431       6.75788228      13.49870977  F        0       0.00000000       0.00000000       0.00000000       0.24742300      -0.11429900      -0.35757300       0.00000000
Sn       3.95927419       0.31152932      13.49871000  F        0       0.00000000       0.00000000       0.00000000       0.00448400       0.16700800       0.00940700       0.00000000
Sn       5.26524212       3.53470556      15.76071271  F        0       0.00000000       0.00000000       0.00000000      -0.03552800       0.21783900      -0.01051900       0.00000000
Sn       1.34733846       9.98105876      13.49870977  F        0       0.00000000       0.00000000       0.00000000       0.14802100      -0.03446300      -0.25822000       0.00000000
C        1.92167474       6.17026455      22.92593922  T        2      -0.00347400       0.01671200       0.04569200      -0.00347400       0.01671200       0.04569200       0.00000000
C        0.64731723       6.70613030      23.56358951  T        2      -0.01649600       0.00218700       0.00157300      -0.01649600       0.00218700       0.00157300       0.00000000
H        1.98774798       5.07146257      23.05858156  T        2       0.01547100       0.00560000      -0.00274200       0.01547100       0.00560000      -0.00274200       0.00000000
H        2.82517698       6.61710073      23.38080590  T        2       0.02230000       0.02446300       0.01434700       0.02230000       0.02446300       0.01434700       0.00000000
H        0.57466283       7.79639425      23.42383387  T        2      -0.00660600      -0.01145600       0.00979900      -0.00660600      -0.01145600       0.00979900       0.00000000
H       -0.24804425       6.23333918      23.12743414  T        2       0.00174400      -0.00133000      -0.00290500       0.00174400      -0.00133000      -0.00290500       0.00000000
H        0.65921424       6.49236922      24.64695272  T        2       0.00671700      -0.00227700      -0.00967600       0.00671700      -0.00227700      -0.00967600       0.00000000
O        1.95136525       6.45381446      21.49029315  T        2      -0.00342400       0.00459500      -0.04327800      -0.00342400       0.00459500      -0.04327800       0.00000000
C        1.79508876       9.90109160      21.68728576  T        2       0.04315800       0.00683000       0.00627300       0.04315800       0.00683000       0.00627300       0.00000000
H        1.22333560      10.21601755      22.58010524  T        2       0.00649400       0.01026500       0.03251600       0.00649400       0.01026500       0.03251600       0.00000000
58
Lattice="7.835806846618652 5.540308570905594e-16 4.52400541305542 -3.917903423309326 12.892705917358398 2.26200270652771 -0.0 4.432246856724475e-15 36.19204330444336" Properties=species:S:1:pos:R:3:move_mask:L:1:tags:I:1:DFT_forces:R:3:forces:R:3 DFT_energy=-307.93268131 energy=-307.93268131 pbc="T T T"
Hf      -1.10780273       5.20568646      17.78836732  T        1      -0.00164200       0.00377100      -0.00233300      -0.00164200       0.00377100      -0.00233300
Hf      -1.29607968      11.53352119      18.08416456  T        1       0.00015100      -0.00122300      -0.00418900       0.00015100      -0.00122300      -0.00418900
Hf      -1.23734393       8.37465690      17.99034137  T        1       0.00639700      -0.00319200      -0.00059700       0.00639700      -0.00319200      -0.00059700
Hf       2.62683274       1.84248340      15.81835612  T        1      -0.00269600       0.00193100       0.00128400      -0.00269600       0.00193100       0.00128400
Cu      -0.02514852       3.02832894      15.89784987  T        1       0.00116900      -0.00020400      -0.00259300       0.00116900      -0.00020400      -0.00259300
Cu       0.11928761      10.30816464      20.33663743  T        1      -0.00743200       0.00190700      -0.00430100      -0.00743200       0.00190700      -0.00430100
Cu       5.19249227       6.59453902      20.48193254  T        1      -0.00297500       0.00981800       0.00194300      -0.00297500       0.00981800       0.00194300
Cu      -2.57056496      12.82573240      15.76071271  F        0       0.00000000       0.00000000       0.00000000       0.00000000       0.00000000       0.00000000
Sn       0.04137077       6.75788228      15.76071271  F        0       0.00000000       0.00000000       0.00000000       0.00000000       0.00000000       0.00000000
Sn       0.03834756       0.24826596      15.84584976  T        1      -0.00181800       0.00411100       0.00030500      -0.00181800       0.00411100       0.00030500
Sn       1.29512511       3.57223910      18.15473360  T        1      -0.00122600       0.00953500       0.00586200      -0.00122600       0.00953500       0.00586200
Sn      -2.57056496       9.98105876      15.76071271  F        0       0.00000000       0.00000000       0.00000000       0.00000000       0.00000000       0.00000000
Hf      -1.26459710       5.10455315      13.49870977  F        0       0.00000000       0.00000000       0.00000000       0.00000000       0.00000000       0.00000000
Hf      -1.26459710      11.55090635      13.49870977  F        0       0.00000000       0.00000000       0.00000000       0.00000000       0.00000000       0.00000000
Hf      -1.26459710       8.32772987      13.49870977  F        0       0.00000000       0.00000000       0.00000000       0.00000000       0.00000000       0.00000000
Hf       2.65330633       1.88137738      11.23670706  F        0       0.00000000       0.00000000       0.00000000       0.00000000       0.00000000       0.00000000
Cu       0.04137077       3.15620230      11.23670873  F        0       0.00000000       0.00000000       0.00000000       0.00000000       0.00000000       0.00000000
Cu       0.04137077       9.60255544      15.76071271  F        0       0.00000000       0.00000000       0.00000000       0.00000000       0.00000000       0.00000000
Cu       5.26524188       6.37937896      15.76071414  F        0       0.00000000       0.00000000       0.00000000       0.00000000       0.00000000       0.00000000
Cu      -2.57056496      12.82573240      11.23670873  F        0       0.00000000       0.00000000       0.00000000       0.00000000       0.00000000       0.00000000
Sn       0.04137077       6.75788228      11.23670873  F        0       0.00000000       0.00000000       0.00000000       0.00000000       0.00000000       0.00000000
Sn       0.04137065       0.31152932      11.23670706  F        0       0.00000000       0.00000000       0.00000000       0.00000000       0.00000000       0.00000000
Sn       1.34733846       3.53470556      13.49870977  F        0       0.00000000       0.00000000       0.00000000       0.00000000       0.00000000       0.00000000
Sn      -2.57056496       9.98105876      11.23670873  F        0       0.00000000       0.00000000       0.00000000       0.00000000       0.00000000       0.00000000
Hf       2.78101126       5.18940390      20.09784051  T        1      -0.01205600       0.01663800       0.00621400      -0.01205600       0.01663800       0.00621400
Hf       2.60841363      11.58971422      20.39168979  T        1      -0.00035400       0.00868900      -0.00685100      -0.00035400       0.00868900      -0.00685100
Hf       2.55326919       8.33745141      20.44230187  T        1      -0.01450900      -0.00949000       0.00703400      -0.01450900      -0.00949000       0.00703400
Hf       6.53406642       1.85347612      18.10323119  T        1      -0.00559900       0.00412000       0.00047600      -0.00559900       0.00412000       0.00047600
Cu       3.90835728       3.00703575      18.13117148  T        1      -0.00279900       0.00367500      -0.00326200      -0.00279900       0.00367500      -0.00326200
Cu       3.91960701      10.31960085      22.53068615  T        1      -0.01192800       0.00406700      -0.00545900      -0.01192800       0.00406700      -0.00545900
Cu       1.19563400       6.64707991      18.29074542  T        1      -0.00125600      -0.00521900      -0.00229000      -0.00125600      -0.00521900      -0.00229000
Cu       1.34733846      12.82573240      18.02271566  F        0       0.00000000       0.00000000       0.00000000       0.00000000       0.00000000       0.00000000
Sn       3.95927431       6.75788228      18.02271566  F        0       0.00000000       0.00000000       0.00000000       0.00000000       0.00000000       0.00000000
Sn       3.89980255       0.24544061      18.06930701  T        1      -0.00162500       0.00267200      -0.00424800      -0.00162500       0.00267200      -0.00424800
Sn       5.18904993       3.56322711      20.42576368  T        1      -0.00587400       0.01469300       0.00312600      -0.00587400       0.01469300       0.00312600
Sn       1.34733846       9.98105876      18.02271566  F        0       0.00000000       0.00000000       0.00000000       0.00000000       0.00000000       0.00000000
Hf       2.65330651       5.10455315      15.76071271  F        0       0.00000000       0.00000000       0.00000000       0.00000000       0.00000000       0.00000000
Hf       2.65330651      11.55090635      15.76071271  F        0       0.00000000       0.00000000       0.00000000       0.00000000       0.00000000       0.00000000
Hf       2.65330651       8.32772987      15.76071271  F        0       0.00000000       0.00000000       0.00000000       0.00000000       0.00000000       0.00000000
Hf       6.57120993       1.88137738      13.49871000  F        0       0.00000000       0.00000000       0.00000000       0.00000000       0.00000000       0.00000000
Cu       3.95927431       3.15620230      13.49870977  F        0       0.00000000       0.00000000       0.00000000       0.00000000       0.00000000       0.00000000
Cu       3.95927431       9.60255544      18.02271566  F        0       0.00000000       0.00000000       0.00000000       0.00000000       0.00000000       0.00000000
Cu       1.34733846       6.37937896      13.49870977  F        0       0.00000000       0.00000000       0.00000000       0.00000000       0.00000000       0.00000000
Cu       1.34733846      12.82573240      13.49870977  F        0       0.00000000       0.00000000       0.00000000       0.00000000       0.00000000       0.00000000
Sn       3.95927431       6.75788228      13.49870977  F        0       0.00000000       0.00000000       0.00000000       0.00000000       0.00000000       0.00000000
Sn       3.95927419       0.31152932      13.49871000  F        0       0.00000000       0.00000000       0.00000000       0.00000000       0.00000000       0.00000000
Sn       5.26524212       3.53470556      15.76071271  F        0       0.00000000       0.00000000       0.00000000       0.00000000       0.00000000       0.00000000
Sn       1.34733846       9.98105876      13.49870977  F        0       0.00000000       0.00000000       0.00000000       0.00000000       0.00000000       0.00000000
C        2.41484683       6.52769270      23.01521792  T        2      -0.02884300      -0.00565000      -0.00091900      -0.02884300      -0.00565000      -0.00091900
C        1.15890958       6.70641824      23.85513837  T        2      -0.04858500       0.01296100      -0.00792700      -0.04858500       0.01296100      -0.00792700
H        2.94683626       5.59221105      23.27452704  T        2       0.01272700      -0.01423200      -0.02827200       0.01272700      -0.01423200      -0.02827200
H        3.12539191       7.36078580      23.18110863  T        2       0.00236200      -0.01673500       0.01840600       0.00236200      -0.01673500       0.01840600
H        1.44666544       6.92882137      24.89801252  T        2      -0.00273200      -0.03874700      -0.00295600      -0.00273200      -0.03874700      -0.00295600
H        0.56599385       7.55545138      23.47840454  T        2      -0.01441900      -0.00963100       0.03153400      -0.01441900      -0.00963100       0.03153400
H        0.52991411       5.80089231      23.85656130  T        2      -0.01839300       0.01518000      -0.04567100      -0.01839300       0.01518000      -0.04567100
O        2.09366258       6.50423576      21.58084897  T        2       0.00229000      -0.02491700      -0.02230700       0.00229000      -0.02491700      -0.02230700
C        1.85620132       9.91369276      21.68632171  T        2      -0.00349300       0.00348500      -0.01494500      -0.00349300       0.00348500      -0.01494500
H        1.31222199      10.01058421      22.64490642  T        2      -0.02417700       0.03432500       0.00305300      -0.02417700       0.03432500       0.00305300
58
Lattice="7.835806846618652 5.540308570905594e-16 4.52400541305542 -3.917903423309326 12.892705917358398 2.26200270652771 -0.0 4.432246856724475e-15 36.19204330444336" Properties=species:S:1:pos:R:3:move_mask:L:1:tags:I:1:DFT_forces:R:3:forces:R:3 DFT_energy=-307.83063273 energy=-307.83063273 pbc="T T T"
Hf      -1.09548500       5.19626256      17.79019188  T        1       0.00031200       0.00672300       0.00083900       0.00031200       0.00672300       0.00083900
Hf      -1.28632753      11.53347956      18.08761911  T        1      -0.00405400       0.00282600      -0.00233000      -0.00405400       0.00282600      -0.00233000
Hf      -1.26184504       8.36999758      17.96621819  T        1       0.04636500       0.00854200       0.01998000       0.04636500       0.00854200       0.01998000
Hf       2.63587213       1.84045198      15.82172471  T        1      -0.00219300       0.00290100       0.00159600      -0.00219300       0.00290100       0.00159600
Cu      -0.01660206       3.02217186      15.89828716  T        1      -0.00058500       0.01417700       0.00250500      -0.00058500       0.01417700       0.00250500
Cu       0.14662521      10.32586926      20.35196625  T        1      -0.00778000      -0.00727100       0.00069800      -0.00778000      -0.00727100       0.00069800
Cu       5.21159579       6.54132055      20.45810617  T        1      -0.00665800       0.03650100       0.00874400      -0.00665800       0.03650100       0.00874400
Cu      -2.57056496      12.82573240      15.76071271  F        0       0.00000000       0.00000000       0.00000000       0.00000000       0.00000000       0.00000000
Sn       0.04137077       6.75788228      15.76071271  F        0       0.00000000       0.00000000       0.00000000       0.00000000       0.00000000       0.00000000
Sn       0.04552315       0.24999763      15.84631109  T        1       0.00324300       0.01025000      -0.00175700       0.00324300       0.01025000      -0.00175700
Sn       1.30087102       3.56281574      18.16047380  T        1       0.00851200       0.01862200       0.00013200       0.00851200       0.01862200       0.00013200
Sn      -2.57056496       9.98105876      15.76071271  F        0       0.00000000       0.00000000       0.00000000       0.00000000       0.00000000       0.00000000
Hf      -1.26459710       5.10455315      13.49870977  F        0       0.00000000       0.00000000       0.00000000       0.00000000       0.00000000       0.00000000
Hf      -1.26459710      11.55090635      13.49870977  F        0       0.00000000       0.00000000       0.00000000       0.00000000       0.00000000       0.00000000
Hf      -1.26459710       8.32772987      13.49870977  F        0       0.00000000       0.00000000       0.00000000       0.00000000       0.00000000       0.00000000
Hf       2.65330633       1.88137738      11.23670706  F        0       0.00000000       0.00000000       0.00000000       0.00000000       0.00000000       0.00000000
Cu       0.04137077       3.15620230      11.23670873  F        0       0.00000000       0.00000000       0.00000000       0.00000000       0.00000000       0.00000000
Cu       0.04137077       9.60255544      15.76071271  F        0       0.00000000       0.00000000       0.00000000       0.00000000       0.00000000       0.00000000
Cu       5.26524188       6.37937896      15.76071414  F        0       0.00000000       0.00000000       0.00000000       0.00000000       0.00000000       0.00000000
Cu      -2.57056496      12.82573240      11.23670873  F        0       0.00000000       0.00000000       0.00000000       0.00000000       0.00000000       0.00000000
Sn       0.04137077       6.75788228      11.23670873  F        0       0.00000000       0.00000000       0.00000000       0.00000000       0.00000000       0.00000000
Sn       0.04137065       0.31152932      11.23670706  F        0       0.00000000       0.00000000       0.00000000       0.00000000       0.00000000       0.00000000
Sn       1.34733846       3.53470556      13.49870977  F        0       0.00000000       0.00000000       0.00000000       0.00000000       0.00000000       0.00000000
Sn      -2.57056496       9.98105876      11.23670873  F        0       0.00000000       0.00000000       0.00000000       0.00000000       0.00000000       0.00000000
Hf       2.79276604       5.17327588      20.10857279  T        1      -0.00044000       0.00570300      -0.00314500      -0.00044000       0.00570300      -0.00314500
Hf       2.61687969      11.57302399      20.40206279  T        1       0.00084800       0.01876700      -0.00253000       0.00084800       0.01876700      -0.00253000
Hf       2.63998129       8.29922155      20.49975149  T        1      -0.10353200       0.05468000      -0.11818900      -0.10353200       0.05468000      -0.11818900
Hf       6.53611065       1.84692065      18.10208672  T        1       0.00109800       0.01057100       0.00460300       0.00109800       0.01057100       0.00460300
Cu       3.91312293       3.00460691      18.13516805  T        1      -0.00049500       0.00507600       0.00202600      -0.00049500       0.00507600       0.00202600
Cu       3.96783186      10.34299733      22.56800976  T        1      -0.02066900       0.01234700      -0.02711600      -0.02066900       0.01234700      -0.02711600
Cu       1.20692066       6.62594137      18.30491646  T        1      -0.01151700       0.03875400       0.02331600      -0.01151700       0.03875400       0.02331600
Cu       1.34733846      12.82573240      18.02271566  F        0       0.00000000       0.00000000       0.00000000       0.00000000       0.00000000       0.00000000
Sn       3.95927431       6.75788228      18.02271566  F        0       0.00000000       0.00000000       0.00000000       0.00000000       0.00000000       0.00000000
Sn       3.90866270       0.24282257      18.07655269  T        1      -0.00097900       0.00457900      -0.00443600      -0.00097900       0.00457900      -0.00443600
Sn       5.19630951       3.54875395      20.42971719  T        1      -0.01243700       0.01307500      -0.00106500      -0.01243700       0.01307500      -0.00106500
Sn       1.34733846       9.98105876      18.02271566  F        0       0.00000000       0.00000000       0.00000000       0.00000000       0.00000000       0.00000000
Hf       2.65330651       5.10455315      15.76071271  F        0       0.00000000       0.00000000       0.00000000       0.00000000       0.00000000       0.00000000
Hf       2.65330651      11.55090635      15.76071271  F        0       0.00000000       0.00000000       0.00000000       0.00000000       0.00000000       0.00000000
Hf       2.65330651       8.32772987      15.76071271  F        0       0.00000000       0.00000000       0.00000000       0.00000000       0.00000000       0.00000000
Hf       6.57120993       1.88137738      13.49871000  F        0       0.00000000       0.00000000       0.00000000       0.00000000       0.00000000       0.00000000
Cu       3.95927431       3.15620230      13.49870977  F        0       0.00000000       0.00000000       0.00000000       0.00000000       0.00000000       0.00000000
Cu       3.95927431       9.60255544      18.02271566  F        0       0.00000000       0.00000000       0.00000000       0.00000000       0.00000000       0.00000000
Cu       1.34733846       6.37937896      13.49870977  F        0       0.00000000       0.00000000       0.00000000       0.00000000       0.00000000       0.00000000
Cu       1.34733846      12.82573240      13.49870977  F        0       0.00000000       0.00000000       0.00000000       0.00000000       0.00000000       0.00000000
Sn       3.95927431       6.75788228      13.49870977  F        0       0.00000000       0.00000000       0.00000000       0.00000000       0.00000000       0.00000000
Sn       3.95927419       0.31152932      13.49871000  F        0       0.00000000       0.00000000       0.00000000       0.00000000       0.00000000       0.00000000
Sn       5.26524212       3.53470556      15.76071271  F        0       0.00000000       0.00000000       0.00000000       0.00000000       0.00000000       0.00000000
Sn       1.34733846       9.98105876      13.49870977  F        0       0.00000000       0.00000000       0.00000000       0.00000000       0.00000000       0.00000000
C        2.61662202       6.63827620      23.03509875  T        2      -0.01012200      -0.00379900      -0.01964900      -0.01012200      -0.00379900      -0.01964900
C        1.45333950       6.88165585      23.98444189  T        2      -0.02554700      -0.02578300       0.00025900      -0.02554700      -0.02578300       0.00025900