28
Lattice="7.850831508636475 2.726364799662118e-16 2.226245641708374 -3.383115768432617 9.233924865722656 -3.0255379676818848 -0.0 3.663177786550776e-15 29.912118911743164" Properties=species:S:1:pos:R:3:move_mask:L:1:tags:I:1:DFT_forces:R:3:forces:R:3:magmoms:R:1 DFT_energy=-151.8167379 energy=-151.8167379 dipole="_JSON [[0.0, 0.0, 0.0]]" magmom=0.0 free_energy=-151.82241643 pbc="T T T"
Ti      -0.18204224       2.84122776       8.43164532  F        0       0.00000000       0.00000000       0.00000000      -0.29108000       0.17734900       1.09946100       0.00000000
Ti      -1.14430737       8.69088900      11.85827414  T        1       0.00154600      -0.00791200      -0.00231100       0.00154600      -0.00791200      -0.00231100       0.00000000
Ti       1.30719638       5.91920279      10.65789072  F        0       0.00000000       0.00000000       0.00000000      -0.01429000      -0.05141900      -0.04887000       0.00000000
Ti       0.78674546       4.24572310      13.28982870  T        1      -0.00315100      -0.00914900       0.01658800      -0.00315100      -0.00914900       0.01658800       0.00000000
Ti       2.99875422       1.30224060      12.17065994  F        0       0.00000000       0.00000000       0.00000000       0.00614500       0.03300700      -0.19992400       0.00000000
Ti      -1.87360012       7.45819019       6.91887609  F        0       0.00000000       0.00000000       0.00000000      -0.33485100      -0.04578100       1.30982000       0.00000000
Sb       2.16876819       2.22206961      14.66533306  T        1      -0.02571600       0.01073700      -0.01018700      -0.02571600       0.01073700      -0.01018700       0.00000000
Sb       1.36385978       8.74067997      10.45806829  F        0       0.00000000       0.00000000       0.00000000       0.15531100      -0.11523400      -0.50855300       0.00000000
Sb      -0.12537881       5.66270493       8.23182241  F        0       0.00000000       0.00000000       0.00000000       0.26246600       0.20171400      -0.93811400       0.00000000
Sb       1.25053287       3.09772589      10.85771410  F        0       0.00000000       0.00000000       0.00000000       0.29423400      -0.29894600      -1.04032800       0.00000000
Sb       3.71445940      -0.04696613      17.08938878  T        1       0.00337800       0.00068300      -0.01807300       0.00337800       0.00068300      -0.01807300       0.00000000
Sb      -1.20798443       5.96012518      12.09477387  T        1      -0.02878700      -0.01024600      -0.00989600      -0.02878700      -0.01024600      -0.00989600       0.00000000
Ti       3.74337352       2.84122776       9.54476826  F        0       0.00000000       0.00000000       0.00000000      -0.27904700       0.24388800       1.07773600       0.00000000
Ti       2.74750685       8.99862570      12.92800935  T        1      -0.00248800      -0.00067700      -0.02101900      -0.00248800      -0.00067700      -0.02101900       0.00000000
Ti       5.23261226       5.91920279      11.77101366  F        0       0.00000000       0.00000000       0.00000000       0.19833200       0.12740000       0.09258000       0.00000000
Ti       4.20610392       4.19458299      14.47582146  T        1      -0.00462500       0.02130300      -0.01338000      -0.00462500       0.02130300      -0.01338000       0.00000000
Ti       6.92416990       1.30224060      13.28378288  F        0       0.00000000       0.00000000       0.00000000      -0.06507100       0.01046000      -0.17870300       0.00000000
Ti       2.05181563       7.45819019       8.03199903  F        0       0.00000000       0.00000000       0.00000000      -0.40330400      -0.12412700       1.24640800       0.00000000
Sb       6.44332188       2.52592307      15.91808325  T        1      -0.00291700      -0.03183900       0.03811700      -0.00291700      -0.03183900       0.03811700       0.00000000
Sb      -2.56155574       8.74067997       9.34494559  F        0       0.00000000       0.00000000       0.00000000       0.09388200      -0.12838000      -0.60684800       0.00000000
Sb       3.80003703       5.66270493       9.34494535  F        0       0.00000000       0.00000000       0.00000000       0.25062600       0.19714800      -0.87888200       0.00000000
Sb       5.17594874       3.09772589      11.97083704  F        0       0.00000000       0.00000000       0.00000000       0.16932400      -0.14083200      -0.39695500       0.00000000
Sb       7.67102956       0.32501894      18.17423056  T        1      -0.01385300      -0.03238600       0.01449700      -0.01385300      -0.03238600       0.01449700       0.00000000
Sb       2.74603089       6.28613042      13.11904367  T        1      -0.00990200       0.00137100       0.00046500      -0.00990200       0.00137100       0.00046500       0.00000000
C        2.25231415       4.60615990      14.57779114  T        2       0.02120800      -0.00634800      -0.01062200       0.02120800      -0.00634800      -0.01062200       0.00000000
C        4.79864765       3.87361150      16.50687377  T        2       0.00835500       0.02424100      -0.00919400       0.00835500       0.02424100      -0.00919400       0.00000000
H        5.27669299       4.70003497      17.05791946  T        2       0.00991800      -0.02080700      -0.00394000       0.00991800      -0.02080700      -0.00394000       0.00000000
H        4.09943918       3.32806099      17.16067496  T        2       0.00435500      -0.02521500       0.00012700       0.00435500      -0.02521500       0.00012700       0.00000000
28
Lattice="7.850831508636475 2.726364799662118e-16 2.226245641708374 -3.383115768432617 9.233924865722656 -3.0255379676818848 -0.0 3.663177786550776e-15 29.912118911743164" Properties=species:S:1:pos:R:3:move_mask:L:1:tags:I:1:DFT_forces:R:3:forces:R:3 DFT_energy=-151.74260012 energy=-151.74260012 pbc="T T T"
Ti      -0.18204224       2.84122776       8.43164532  F        0       0.00000000       0.00000000       0.00000000       0.00000000       0.00000000       0.00000000
Ti      -1.10310208       8.66827645      11.87317764  T        1       0.00569100       0.00090300      -0.00153800       0.00569100       0.00090300      -0.00153800
Ti       1.30719638       5.91920279      10.65789072  F        0       0.00000000       0.00000000       0.00000000       0.00000000       0.00000000       0.00000000
Ti       0.74229817       4.25330980      13.31309201  T        1      -0.01373600      -0.00838200      -0.01741600      -0.01373600      -0.00838200      -0.01741600
Ti       2.99875422       1.30224060      12.17065994  F        0       0.00000000       0.00000000       0.00000000       0.00000000       0.00000000       0.00000000
Ti      -1.87360012       7.45819019       6.91887609  F        0       0.00000000       0.00000000       0.00000000       0.00000000       0.00000000       0.00000000
Sb       1.99813059       2.16482177      14.61671150  T        1       0.00857600       0.01123100      -0.00542700       0.00857600       0.01123100      -0.00542700
Sb       1.36385978       8.74067997      10.45806829  F        0       0.00000000       0.00000000       0.00000000       0.00000000       0.00000000       0.00000000
Sb      -0.12537881       5.66270493       8.23182241  F        0       0.00000000       0.00000000       0.00000000       0.00000000       0.00000000       0.00000000
Sb       1.25053287       3.09772589      10.85771410  F        0       0.00000000       0.00000000       0.00000000       0.00000000       0.00000000       0.00000000
Sb       3.68412605      -0.15517329      17.15864359  T        1       0.00681400       0.00289200       0.00307800       0.00681400       0.00289200       0.00307800
Sb      -1.26728218       5.92493997      12.09661806  T        1       0.00963100       0.00315600       0.00518800       0.00963100       0.00315600       0.00518800
Ti       3.74337352       2.84122776       9.54476826  F        0       0.00000000       0.00000000       0.00000000       0.00000000       0.00000000       0.00000000
Ti       2.68213144       9.02216162      12.92161244  T        1      -0.00007100      -0.01733900       0.00013800      -0.00007100      -0.01733900       0.00013800
Ti       5.23261226       5.91920279      11.77101366  F        0       0.00000000       0.00000000       0.00000000       0.00000000       0.00000000       0.00000000
Ti       4.09021579       4.13504710      14.40139709  T        1       0.01603800      -0.01906900       0.02265900       0.01603800      -0.01906900       0.02265900
Ti       6.92416990       1.30224060      13.28378288  F        0       0.00000000       0.00000000       0.00000000       0.00000000       0.00000000       0.00000000
Ti       2.05181563       7.45819019       8.03199903  F        0       0.00000000       0.00000000       0.00000000       0.00000000       0.00000000       0.00000000
Sb       6.38525637       2.54919436      15.95660931  T        1       0.00963000      -0.03094600      -0.00202300       0.00963000      -0.03094600      -0.00202300
Sb      -2.56155574       8.74067997       9.34494559  F        0       0.00000000       0.00000000       0.00000000       0.00000000       0.00000000       0.00000000
Sb       3.80003703       5.66270493       9.34494535  F        0       0.00000000       0.00000000       0.00000000       0.00000000       0.00000000       0.00000000
Sb       5.17594874       3.09772589      11.97083704  F        0       0.00000000       0.00000000       0.00000000       0.00000000       0.00000000       0.00000000
Sb       7.66410413       0.06879628      18.15969061  T        1       0.00459600       0.03022900       0.00122100       0.00459600       0.03022900       0.00122100
Sb       2.74175045       6.31020392      13.10000539  T        1      -0.00648300      -0.01235600       0.01628900      -0.00648300      -0.01235600       0.01628900
C        2.20327424       4.70558239      14.56376289  T        2      -0.00197100      -0.04725900       0.00796500      -0.00197100      -0.04725900       0.00796500
C        4.53300801       3.64060286      16.41383163  T        2       0.06209400       0.02792100       0.03152300       0.06209400       0.02792100       0.03152300
H        4.77938673       4.57000022      16.95269034  T        2       0.15455900       0.02785100       0.12747000       0.15455900       0.02785100       0.12747000
H        3.89265632       2.98772233      17.02648251  T        2       0.03349000       0.04407800      -0.01332400       0.03349000       0.04407800      -0.01332400
28
Lattice="7.850831508636475 2.726364799662118e-16 2.226245641708374 -3.383115768432617 9.233924865722656 -3.0255379676818848 -0.0 3.663177786550776e-15 29.912118911743164" Properties=species:S:1:pos:R:3:move_mask:L:1:tags:I:1:DFT_forces:R:3:forces:R:3 DFT_energy=-151.5225752 energy=-151.5225752 pbc="T T T"
Ti      -0.18204224       2.84122776       8.43164532  F        0       0.00000000       0.00000000       0.00000000       0.00000000       0.00000000       0.00000000
Ti      -1.10721965       8.66708741      11.87463400  T        1       0.01186500       0.00533700       0.00390900       0.01186500       0.00533700       0.00390900
Ti       1.30719638       5.91920279      10.65789072  F        0       0.00000000       0.00000000       0.00000000       0.00000000       0.00000000       0.00000000
Ti       0.74268193       4.25886068      13.33451715  T        1      -0.00685600       0.00412000      -0.00217800      -0.00685600       0.00412000      -0.00217800
Ti       2.99875422       1.30224060      12.17065994  F        0       0.00000000       0.00000000       0.00000000       0.00000000       0.00000000       0.00000000
Ti      -1.87360012       7.45819019       6.91887609  F        0       0.00000000       0.00000000       0.00000000       0.00000000       0.00000000       0.00000000
Sb       1.97997462       2.15513559      14.62924223  T        1      -0.04250000      -0.00837400      -0.05083800      -0.04250000      -0.00837400      -0.05083800
Sb       1.36385978       8.74067997      10.45806829  F        0       0.00000000       0.00000000       0.00000000       0.00000000       0.00000000       0.00000000
Sb      -0.12537881       5.66270493       8.23182241  F        0       0.00000000       0.00000000       0.00000000       0.00000000       0.00000000       0.00000000
Sb       1.25053287       3.09772589      10.85771410  F        0       0.00000000       0.00000000       0.00000000       0.00000000       0.00000000       0.00000000
Sb       3.67033756      -0.16916183      17.15828074  T        1      -0.00019400      -0.02519900       0.01840400      -0.00019400      -0.02519900       0.01840400
Sb      -1.28978294       5.92161563      12.10943085  T        1       0.00654900      -0.00386200      -0.00320100       0.00654900      -0.00386200      -0.00320100
Ti       3.74337352       2.84122776       9.54476826  F        0       0.00000000       0.00000000       0.00000000       0.00000000       0.00000000       0.00000000
Ti       2.67417106       9.06527532      12.93203937  T        1      -0.02659300      -0.01864900      -0.00591200      -0.02659300      -0.01864900      -0.00591200
Ti       5.23261226       5.91920279      11.77101366  F        0       0.00000000       0.00000000       0.00000000       0.00000000       0.00000000       0.00000000
Ti       4.07313854       4.16339058      14.34236616  T        1       0.00179500      -0.03422300       0.03277400       0.00179500      -0.03422300       0.03277400
Ti       6.92416990       1.30224060      13.28378288  F        0       0.00000000       0.00000000       0.00000000       0.00000000       0.00000000       0.00000000
Ti       2.05181563       7.45819019       8.03199903  F        0       0.00000000       0.00000000       0.00000000       0.00000000       0.00000000       0.00000000
Sb       6.32372814       2.59128147      15.95521239  T        1       0.03569300      -0.01606800       0.02902500       0.03569300      -0.01606800       0.02902500
Sb      -2.56155574       8.74067997       9.34494559  F        0       0.00000000       0.00000000       0.00000000       0.00000000       0.00000000       0.00000000
Sb       3.80003703       5.66270493       9.34494535  F        0       0.00000000       0.00000000       0.00000000       0.00000000       0.00000000       0.00000000
Sb       5.17594874       3.09772589      11.97083704  F        0       0.00000000       0.00000000       0.00000000       0.00000000       0.00000000       0.00000000
Sb       7.65499705      -0.04724077      18.16540431  T        1       0.00345200       0.02479600      -0.00820600       0.00345200       0.02479600      -0.00820600
Sb       2.73530558       6.35299816      13.06807984  T        1       0.00383900      -0.03034200       0.02093600       0.00383900      -0.03034200       0.02093600
C        2.21239233       4.79365739      14.53726709  T        2      -0.02344400      -0.03115400       0.01159900      -0.02344400      -0.03115400       0.01159900
C        4.29695245       3.43389359      16.27759271  T        2       0.11670900       0.06351700       0.08734600       0.11670900       0.06351700       0.08734600
H        4.30521945       4.50219258      16.61068475  T        2       0.21827000       0.02976400       0.15518400       0.21827000       0.02976400       0.15518400
H        3.79287192       2.81826180      17.03270825  T        2       0.02479500      -0.01179100      -0.01588900       0.02479500      -0.01179100      -0.01588900
28
Lattice="7.850831508636475 2.726364799662118e-16 2.226245641708374 -3.383115768432617 9.233924865722656 -3.0255379676818848 -0.0 3.663177786550776e-15 29.912118911743164" Properties=species:S:1:pos:R:3:move_mask:L:1:tags:I:1:DFT_forces:R:3:forces:R:3 DFT_energy=-151.30788695 energy=-151.30788695 pbc="T T T"
Ti      -0.18204224       2.84122776       8.43164532  F        0       0.00000000       0.00000000       0.00000000       0.00000000       0.00000000       0.00000000
Ti      -1.13635600       8.65506722      11.86194570  T        1       0.01331800       0.01389800       0.00929700       0.01331800       0.01389800       0.00929700
Ti       1.30719638       5.91920279      10.65789072  F        0       0.00000000       0.00000000       0.00000000       0.00000000       0.00000000       0.00000000
Ti       0.75914760       4.25142259      13.35107645  T        1       0.00475700       0.01405100       0.00562800       0.00475700       0.01405100       0.00562800
Ti       2.99875422       1.30224060      12.17065994  F        0       0.00000000       0.00000000       0.00000000       0.00000000       0.00000000       0.00000000
Ti      -1.87360012       7.45819019       6.91887609  F        0       0.00000000       0.00000000       0.00000000       0.00000000       0.00000000       0.00000000
Sb       2.05878583       2.16714493      14.74261370  T        1      -0.03502500       0.01560800      -0.04585800      -0.03502500       0.01560800      -0.04585800
Sb       1.36385978       8.74067997      10.45806829  F        0       0.00000000       0.00000000       0.00000000       0.00000000       0.00000000       0.00000000
Sb      -0.12537881       5.66270493       8.23182241  F        0       0.00000000       0.00000000       0.00000000       0.00000000       0.00000000       0.00000000
Sb       1.25053287       3.09772589      10.85771410  F        0       0.00000000       0.00000000       0.00000000       0.00000000       0.00000000       0.00000000
Sb       3.68570286      -0.13188121      17.11078566  T        1      -0.01218600      -0.01803800       0.02411000      -0.01218600      -0.01803800       0.02411000
Sb      -1.29321968       5.91727459      12.12713444  T        1      -0.01402200       0.00866400      -0.01385400      -0.01402200       0.00866400      -0.01385400
Ti       3.74337352       2.84122776       9.54476826  F        0       0.00000000       0.00000000       0.00000000       0.00000000       0.00000000       0.00000000
Ti       2.72933103       9.09912032      12.93947361  T        1      -0.02983200      -0.01333500      -0.00151400      -0.02983200      -0.01333500      -0.00151400
Ti       5.23261226       5.91920279      11.77101366  F        0       0.00000000       0.00000000       0.00000000       0.00000000       0.00000000       0.00000000
Ti       4.08769978       4.22192667      14.27759613  T        1       0.00652500      -0.00974200       0.01685000       0.00652500      -0.00974200       0.01685000
Ti       6.92416990       1.30224060      13.28378288  F        0       0.00000000       0.00000000       0.00000000       0.00000000       0.00000000       0.00000000
Ti       2.05181563       7.45819019       8.03199903  F        0       0.00000000       0.00000000       0.00000000       0.00000000       0.00000000       0.00000000
Sb       6.24237996       2.62215920      15.90501113  T        1       0.04337800      -0.01303000       0.02456400       0.04337800      -0.01303000       0.02456400
Sb      -2.56155574       8.74067997       9.34494559  F        0       0.00000000       0.00000000       0.00000000       0.00000000       0.00000000       0.00000000
Sb       3.80003703       5.66270493       9.34494535  F        0       0.00000000       0.00000000       0.00000000       0.00000000       0.00000000       0.00000000
Sb       5.17594874       3.09772589      11.97083704  F        0       0.00000000       0.00000000       0.00000000       0.00000000       0.00000000       0.00000000
Sb       7.65217128      -0.09561904      18.19249065  T        1       0.00524200      -0.00282400      -0.01238200       0.00524200      -0.00282400      -0.01238200
Sb       2.71698098       6.39154195      13.03575540  T        1       0.01507300       0.00070900      -0.00440300       0.01507300       0.00070900      -0.00440300
C        2.22408272       4.87015064      14.50202101  T        2      -0.02003500      -0.04050200      -0.00905400      -0.02003500      -0.04050200      -0.00905400
C        4.06283418       3.30798573      16.13632947  T        2       0.07945100      -0.00724000       0.04378600       0.07945100      -0.00724000       0.04378600
H        3.86757032       4.41767729      16.29870326  T        2       0.23622300       0.02440300       0.16140600       0.23622300       0.02440300       0.16140600
H        3.74419084       2.82820760      17.06946700  T        2       0.01589800      -0.11606800      -0.00908300       0.01589800      -0.11606800      -0.00908300
28
Lattice="7.850831508636475 2.726364799662118e-16 2.226245641708374 -3.383115768432617 9.233924865722656 -3.0255379676818848 -0.0 3.663177786550776e-15 29.912118911743164" Properties=species:S:1:pos:R:3:move_mask:L:1:tags:I:1:DFT_forces:R:3:forces:R:3 DFT_energy=-151.01997609 energy=-151.01997609 pbc="T T T"
Ti      -0.18204224       2.84122776       8.43164532  F        0       0.00000000       0.00000000       0.00000000       0.00000000       0.00000000       0.00000000
Ti      -1.16176521       8.62384188      11.85183099  T        1       0.00922200       0.02605200       0.00428000       0.00922200       0.02605200       0.00428000
Ti       1.30719638       5.91920279      10.65789072  F        0       0.00000000       0.00000000       0.00000000       0.00000000       0.00000000       0.00000000
Ti       0.78817574       4.23044285      13.37876714  T        1      -0.07416800       0.01624000      -0.07937100      -0.07416800       0.01624000      -0.07937100
Ti       2.99875422       1.30224060      12.17065994  F        0       0.00000000       0.00000000       0.00000000       0.00000000       0.00000000       0.00000000
Ti      -1.87360012       7.45819019       6.91887609  F        0       0.00000000       0.00000000       0.00000000       0.00000000       0.00000000       0.00000000
Sb       2.13148785       2.14976757      14.83016647  T        1      -0.04820800       0.05230000       0.00617300      -0.04820800       0.05230000       0.00617300
Sb       1.36385978       8.74067997      10.45806829  F        0       0.00000000       0.00000000       0.00000000       0.00000000       0.00000000       0.00000000
Sb      -0.12537881       5.66270493       8.23182241  F        0       0.00000000       0.00000000       0.00000000       0.00000000       0.00000000       0.00000000
Sb       1.25053287       3.09772589      10.85771410  F        0       0.00000000       0.00000000       0.00000000       0.00000000       0.00000000       0.00000000
Sb       3.70053302      -0.08906884      17.07044109  T        1       0.00426800      -0.00239000       0.00475400       0.00426800      -0.00239000       0.00475400
Sb      -1.27301856       5.89350305      12.14065889  T        1      -0.03637600       0.03525100      -0.01762500      -0.03637600       0.03525100      -0.01762500
Ti       3.74337352       2.84122776       9.54476826  F        0       0.00000000       0.00000000       0.00000000       0.00000000       0.00000000       0.00000000
Ti       2.77714986       9.10640862      12.94514068  T        1      -0.01489600       0.03094600       0.00693500      -0.01489600       0.03094600       0.00693500
Ti       5.23261226       5.91920279      11.77101366  F        0       0.00000000       0.00000000       0.00000000       0.00000000       0.00000000       0.00000000
Ti       4.09130502       4.24537847      14.22095240  T        1      -0.05575000       0.03639600      -0.02460500      -0.05575000       0.03639600      -0.02460500
Ti       6.92416990       1.30224060      13.28378288  F        0       0.00000000       0.00000000       0.00000000       0.00000000       0.00000000       0.00000000
Ti       2.05181563       7.45819019       8.03199903  F        0       0.00000000       0.00000000       0.00000000       0.00000000       0.00000000       0.00000000
Sb       6.18483683       2.63082017      15.86325579  T        1      -0.00751000       0.03596100      -0.00554100      -0.00751000       0.03596100      -0.00554100
Sb      -2.56155574       8.74067997       9.34494559  F        0       0.00000000       0.00000000       0.00000000       0.00000000       0.00000000       0.00000000
Sb       3.80003703       5.66270493       9.34494535  F        0       0.00000000       0.00000000       0.00000000       0.00000000       0.00000000       0.00000000
Sb       5.17594874       3.09772589      11.97083704  F        0       0.00000000       0.00000000       0.00000000       0.00000000       0.00000000       0.00000000
Sb       7.65358294      -0.10803291      18.22098014  T        1      -0.00794300      -0.00848500      -0.00234500      -0.00794300      -0.00848500      -0.00234500
Sb       2.70095073       6.40982762      13.02824067  T        1       0.01100400       0.04826900      -0.07420300       0.01100400       0.04826900      -0.07420300
C        2.22139258       4.91663650      14.50659677  T        2      -0.02829400       0.03343800      -0.17891100      -0.02829400       0.03343800      -0.17891100
C        3.92325429       3.31389223      16.06643052  T        2      -0.07771200      -0.03753400       0.06271200      -0.07771200      -0.03753400       0.06271200
H        3.44926048       4.38303252      16.00480629  T        2       0.50610400      -0.15786300       0.45260800       0.50610400      -0.15786300       0.45260800
H        3.72264779       3.02916855      17.10544556  T        2       0.02539000      -0.21492900       0.04294400       0.02539000      -0.21492900       0.04294400
28
Lattice="7.850831508636475 2.726364799662118e-16 2.226245641708374 -3.383115768432617 9.233924865722656 -3.0255379676818848 -0.0 3.663177786550776e-15 29.912118911743164" Properties=species:S:1:pos:R:3:move_mask:L:1:tags:I:1:DFT_forces:R:3:forces:R:3 DFT_energy=-150.610064 energy=-150.610064 pbc="T T T"
Ti      -0.18204224       2.84122776       8.43164532  F        0       0.00000000       0.00000000       0.00000000       0.00000000       0.00000000       0.00000000
Ti      -1.16283630       8.60200501      11.85162774  T        1       0.00254800      -0.00030300       0.00028500       0.00254800      -0.00030300       0.00028500
Ti       1.30719638       5.91920279      10.65789072  F        0       0.00000000       0.00000000       0.00000000       0.00000000       0.00000000       0.00000000
Ti       0.82494355       4.21225740      13.42107816  T        1      -0.00402500      -0.00376800       0.00062200      -0.00402500      -0.00376800       0.00062200
Ti       2.99875422       1.30224060      12.17065994  F        0       0.00000000       0.00000000       0.00000000       0.00000000       0.00000000       0.00000000
Ti      -1.87360012       7.45819019       6.91887609  F        0       0.00000000       0.00000000       0.00000000       0.00000000       0.00000000       0.00000000
Sb       2.16056645       2.11543364      14.82196302  T        1       0.00328500      -0.00520100       0.00821700       0.00328500      -0.00520100       0.00821700
Sb       1.36385978       8.74067997      10.45806829  F        0       0.00000000       0.00000000       0.00000000       0.00000000       0.00000000       0.00000000
Sb      -0.12537881       5.66270493       8.23182241  F        0       0.00000000       0.00000000       0.00000000       0.00000000       0.00000000       0.00000000
Sb       1.25053287       3.09772589      10.85771410  F        0       0.00000000       0.00000000       0.00000000       0.00000000       0.00000000       0.00000000
Sb       3.70075760      -0.08580438      17.06679621  T        1       0.00245100       0.00049600       0.00538500       0.00245100       0.00049600       0.00538500
Sb      -1.25234013       5.87506044      12.14799050  T        1      -0.01131700      -0.00984900      -0.00247800      -0.01131700      -0.00984900      -0.00247800
Ti       3.74337352       2.84122776       9.54476826  F        0       0.00000000       0.00000000       0.00000000       0.00000000       0.00000000       0.00000000
Ti       2.78581750       9.08083835      12.94724265  T        1      -0.00696700      -0.00405900       0.00189900      -0.00696700      -0.00405900       0.00189900
Ti       5.23261226       5.91920279      11.77101366  F        0       0.00000000       0.00000000       0.00000000       0.00000000       0.00000000       0.00000000
Ti       4.13063821       4.22213818      14.23561467  T        1       0.00381900       0.00631000      -0.00023100       0.00381900       0.00631000      -0.00023100
Ti       6.92416990       1.30224060      13.28378288  F        0       0.00000000       0.00000000       0.00000000       0.00000000       0.00000000       0.00000000
Ti       2.05181563       7.45819019       8.03199903  F        0       0.00000000       0.00000000       0.00000000       0.00000000       0.00000000       0.00000000
Sb       6.19237842       2.61465119      15.86606330  T        1      -0.00325200       0.00045300       0.00242900      -0.00325200       0.00045300       0.00242900
Sb      -2.56155574       8.74067997       9.34494559  F        0       0.00000000       0.00000000       0.00000000       0.00000000       0.00000000       0.00000000
Sb       3.80003703       5.66270493       9.34494535  F        0       0.00000000       0.00000000       0.00000000       0.00000000       0.00000000       0.00000000
Sb       5.17594874       3.09772589      11.97083704  F        0       0.00000000       0.00000000       0.00000000       0.00000000       0.00000000       0.00000000
Sb       7.65571698      -0.10849176      18.22370333  T        1      -0.00219800      -0.00854400      -0.00313700      -0.00219800      -0.00854400      -0.00313700
Sb       2.68931268       6.38520326      13.07077921  T        1       0.00125100      -0.00637100       0.01657500       0.00125100      -0.00637100       0.01657500