101
Lattice="10.587393760681152 0.0 6.482909069225045e-16 5.293696880340576 9.168951988220215 6.482909069225045e-16 0.0 0.0 38.900569915771484" Properties=species:S:1:pos:R:3:move_mask:L:1:tags:I:1:DFT_forces:R:3:forces:R:3:magmoms:R:1 DFT_energy=-319.61989889 energy=-319.61989889 dipole="_JSON [[0.0, 0.0, 0.0]]" magmom=0.0 free_energy=-319.61355252 pbc="T T T"
Ga       9.67538710       8.18460305      11.38265128  F        0       0.00000000       0.00000000       0.00000000      -0.00411100       0.02754700       0.03978500       0.00000000
Ga       7.02853866       0.54380973       7.06036563  F        0       0.00000000       0.00000000       0.00000000      -0.03039600       0.01589900      -0.53475300       0.00000000
Ga       9.67538710       2.07196840       9.22150893  F        0       0.00000000       0.00000000       0.00000000      -0.01254800       0.01934300      -0.13632300       0.00000000
Cu       8.35196276       2.83604773       7.06036563  F        0       0.00000000       0.00000000       0.00000000      -0.01814400       0.01763100       0.07807700       0.00000000
Cu      13.64565964       8.94868239       9.22150893  F        0       0.00000000       0.00000000       0.00000000       0.01865000      -0.00900600       0.11064400       0.00000000
Cu       5.70511444       1.30788906      11.38265128  F        0       0.00000000       0.00000000       0.00000000      -0.00147300       0.00948500       0.02592000       0.00000000
Cu       9.67538710       0.54380973       7.06036563  F        0       0.00000000       0.00000000       0.00000000       0.01753800      -0.03093400       0.06665100       0.00000000
Cu       7.02853866       2.07196840       9.22150893  F        0       0.00000000       0.00000000       0.00000000       0.00321300       0.02198100       0.14627500       0.00000000
Cu       9.67538710       3.60012706      11.38265128  F        0       0.00000000       0.00000000       0.00000000      -0.00269200       0.01287300       0.02141100       0.00000000
Cu      10.99881144       2.83604773       7.06036563  F        0       0.00000000       0.00000000       0.00000000       0.01669600       0.01483700       0.06960400       0.00000000
Cu      10.99881132       8.94868239       9.22150893  F        0       0.00000000       0.00000000       0.00000000      -0.02196000      -0.01929200       0.15126100       0.00000000
Cu       8.35196276       1.30788906      11.38265128  F        0       0.00000000       0.00000000       0.00000000      -0.00655600      -0.01311900       0.06062700       0.00000000
Ga       9.72916798       8.19803335      18.03311996  T        1      -0.00705800      -0.00081900       0.00686700      -0.00705800      -0.00081900       0.00686700       0.00000000
Ga       7.02853866       0.54380973      13.54379363  F        0       0.00000000       0.00000000       0.00000000      -0.00400600       0.00571800      -0.07290300       0.00000000
Ga       9.67538710       2.07196840      15.70493598  F        0       0.00000000       0.00000000       0.00000000      -0.03541400      -0.04003500      -0.09083300       0.00000000
Cu       8.35196276       2.83604773      13.54379363  F        0       0.00000000       0.00000000       0.00000000      -0.00742900       0.01987900      -0.01853800       0.00000000
Cu      13.64565964       8.94868239      15.70493598  F        0       0.00000000       0.00000000       0.00000000       0.13198100      -0.09277600      -0.00400300       0.00000000
Cu       5.68844012       1.28001791      17.85441707  T        1       0.00456200      -0.00239100       0.00343300       0.00456200      -0.00239100       0.00343300       0.00000000
Cu       9.67538710       0.54380973      13.54379363  F        0       0.00000000       0.00000000       0.00000000       0.00877900      -0.04506400      -0.00171200       0.00000000
Cu       7.02853866       2.07196840      15.70493598  F        0       0.00000000       0.00000000       0.00000000       0.02353300       0.04391700      -0.07474000       0.00000000
Cu       9.81299050       3.55858509      17.78828406  T        1       0.00589900       0.00816900      -0.00100900       0.00589900       0.00816900      -0.00100900       0.00000000
Cu      10.99881144       2.83604773      13.54379363  F        0       0.00000000       0.00000000       0.00000000       0.01596700       0.01165000       0.00150900       0.00000000
Cu      10.99881132       8.94868239      15.70493598  F        0       0.00000000       0.00000000       0.00000000      -0.00054800       0.01636300      -0.06755900       0.00000000
Cu       8.34055043       1.33226025      17.81692862  T        1       0.00874700      -0.00697600       0.00472400       0.00874700      -0.00697600       0.00472400       0.00000000
Ga       7.02853866       3.60012706      11.38265128  F        0       0.00000000       0.00000000       0.00000000      -0.01775400       0.01953200       0.02928900       0.00000000
Ga       9.67538710       5.12828572       7.06036563  F        0       0.00000000       0.00000000       0.00000000       0.00666100       0.00704500      -0.56674600       0.00000000
Ga      12.32223530       6.65644439       9.22150893  F        0       0.00000000       0.00000000       0.00000000      -0.01509500       0.00624400      -0.14516000       0.00000000
Cu      10.99881144       7.42052396       7.06036563  F        0       0.00000000       0.00000000       0.00000000      -0.02898800       0.00463500       0.07297600       0.00000000
Cu      10.99881144       4.36420615       9.22150893  F        0       0.00000000       0.00000000       0.00000000       0.01247100      -0.01314400       0.14052200       0.00000000
Cu       8.35196276       5.89236482      11.38265128  F        0       0.00000000       0.00000000       0.00000000       0.01022900      -0.01430000       0.01663400       0.00000000
Cu      12.32223530       5.12828572       7.06036563  F        0       0.00000000       0.00000000       0.00000000      -0.00328800      -0.03495200       0.08603200       0.00000000
Cu       9.67538710       6.65644439       9.22150893  F        0       0.00000000       0.00000000       0.00000000      -0.00156700       0.03127600       0.13370200       0.00000000
Cu      12.32223530       8.18460305      11.38265128  F        0       0.00000000       0.00000000       0.00000000       0.00978200      -0.00549100       0.02016400       0.00000000
Cu      13.64565964       7.42052396       7.06036563  F        0       0.00000000       0.00000000       0.00000000       0.01720800       0.00225600       0.08258100       0.00000000
Cu       8.35196276       4.36420615       9.22150893  F        0       0.00000000       0.00000000       0.00000000      -0.02373700      -0.01227600       0.12684000       0.00000000
Cu      10.99881144       5.89236482      11.38265128  F        0       0.00000000       0.00000000       0.00000000      -0.01019700      -0.00606800       0.02242200       0.00000000
Ga       6.90487174       3.46427346      18.17174292  T        1       0.01431400       0.01287200       0.01459700       0.01431400       0.01287200       0.01459700       0.00000000
Ga       9.67538710       5.12828572      13.54379363  F        0       0.00000000       0.00000000       0.00000000      -0.01749400       0.00436800      -0.05647600       0.00000000
Ga      12.32223530       6.65644439      15.70493598  F        0       0.00000000       0.00000000       0.00000000      -0.01917700       0.07784100      -0.05229300       0.00000000
Cu      10.99881144       7.42052396      13.54379363  F        0       0.00000000       0.00000000       0.00000000      -0.03362300       0.00133200       0.01979700       0.00000000
Cu      10.99881144       4.36420615      15.70493598  F        0       0.00000000       0.00000000       0.00000000       0.14891700       0.01059400      -0.11405700       0.00000000
Cu       8.49018177       5.88475342      17.86587369  T        1      -0.00048600      -0.00385400       0.00463700      -0.00048600      -0.00385400       0.00463700       0.00000000
Cu      12.32223530       5.12828572      13.54379363  F        0       0.00000000       0.00000000       0.00000000       0.00183600      -0.03369700       0.00854200       0.00000000
Cu       9.67538710       6.65644439      15.70493598  F        0       0.00000000       0.00000000       0.00000000      -0.07704100       0.01734500       0.08649700       0.00000000
Cu      12.30729285       8.20129270      17.85129025  T        1       0.01588800       0.00067700      -0.00102900       0.01588800       0.00067700      -0.00102900       0.00000000
Cu      13.64565964       7.42052396      13.54379363  F        0       0.00000000       0.00000000       0.00000000       0.02425200       0.01652800       0.01505200       0.00000000
Cu       8.35196276       4.36420615      15.70493598  F        0       0.00000000       0.00000000       0.00000000      -0.12359900      -0.06495400       0.20499800       0.00000000
Cu      11.05495157       5.88690680      17.83807195  T        1       0.01118900      -0.00649900       0.00194300       0.01118900      -0.00649900       0.00194300       0.00000000
Ga      14.96908398       8.18460305      11.38265128  F        0       0.00000000       0.00000000       0.00000000      -0.00787500       0.01575100       0.02941500       0.00000000
Ga       1.73484154       0.54380973       7.06036563  F        0       0.00000000       0.00000000       0.00000000      -0.01281800       0.00473500      -0.55968000       0.00000000
Ga       4.38169022       2.07196840       9.22150893  F        0       0.00000000       0.00000000       0.00000000       0.00387100       0.01023500      -0.14691900       0.00000000
Cu       3.05826588       2.83604773       7.06036563  F        0       0.00000000       0.00000000       0.00000000      -0.02218700       0.00943500       0.08993700       0.00000000
Cu       8.35196276       8.94868239       9.22150893  F        0       0.00000000       0.00000000       0.00000000       0.02392500      -0.01620700       0.12736500       0.00000000
Cu      10.99881144       1.30788906      11.38265128  F        0       0.00000000       0.00000000       0.00000000       0.00627300      -0.00998600       0.02842500       0.00000000
Cu       4.38169022       0.54380973       7.06036563  F        0       0.00000000       0.00000000       0.00000000       0.00182400      -0.03258800       0.08008900       0.00000000
Cu       1.73484154       2.07196840       9.22150893  F        0       0.00000000       0.00000000       0.00000000       0.00258200       0.01847400       0.12379200       0.00000000
Cu       4.38169022       3.60012706      11.38265128  F        0       0.00000000       0.00000000       0.00000000       0.00637700       0.00902600       0.03624700       0.00000000
Cu       5.70511456       2.83604773       7.06036563  F        0       0.00000000       0.00000000       0.00000000       0.03240400       0.00938200       0.07891800       0.00000000
Cu       5.70511456       8.94868239       9.22150893  F        0       0.00000000       0.00000000       0.00000000      -0.01292500      -0.01766300       0.14779800       0.00000000
Cu       3.05826588       1.30788906      11.38265128  F        0       0.00000000       0.00000000       0.00000000      -0.01396500      -0.01928600       0.00027500       0.00000000
Ga      14.71133902       8.34219858      18.45461744  T        1      -0.01575000       0.02291300       0.00082800      -0.01575000       0.02291300       0.00082800       0.00000000
Ga       1.73484154       0.54380973      13.54379363  F        0       0.00000000       0.00000000       0.00000000      -0.00448700       0.00580800      -0.09508400       0.00000000
Ga       4.38169022       2.07196840      15.70493598  F        0       0.00000000       0.00000000       0.00000000      -0.00713100      -0.00820000       0.00564900       0.00000000
Cu       3.05826588       2.83604773      13.54379363  F        0       0.00000000       0.00000000       0.00000000      -0.02542300      -0.00323200      -0.03318100       0.00000000
Cu       8.35196276       8.94868239      15.70493598  F        0       0.00000000       0.00000000       0.00000000      -0.04591100      -0.08445400       0.06286100       0.00000000
Cu      11.02444821       1.31781111      17.78344432  T        1       0.00161900       0.00406700       0.00533000       0.00161900       0.00406700       0.00533000       0.00000000
Cu       4.38169022       0.54380973      13.54379363  F        0       0.00000000       0.00000000       0.00000000      -0.02315800      -0.02367900       0.03432200       0.00000000
Cu       1.73484154       2.07196840      15.70493598  F        0       0.00000000       0.00000000       0.00000000       0.05115000       0.10623200      -0.14266600       0.00000000
Cu       4.37629659       3.63134559      17.83605711  T        1      -0.00568300       0.00192100       0.00016700      -0.00568300       0.00192100       0.00016700       0.00000000
Cu       5.70511456       2.83604773      13.54379363  F        0       0.00000000       0.00000000       0.00000000       0.03549600       0.02948900       0.09133300       0.00000000
Cu       5.70511456       8.94868239      15.70493598  F        0       0.00000000       0.00000000       0.00000000      -0.08756400      -0.11296100       0.09058300       0.00000000
Cu       3.06156009       1.30496103      17.82911219  T        1       0.00314500      -0.00282700       0.00021200       0.00314500      -0.00282700       0.00021200       0.00000000
Ga      12.32223530       3.60012706      11.38265128  F        0       0.00000000       0.00000000       0.00000000      -0.00426900       0.02080000       0.04783600       0.00000000
Ga       4.38169022       5.12828572       7.06036563  F        0       0.00000000       0.00000000       0.00000000       0.00390200       0.00465300      -0.56010600       0.00000000
Ga       7.02853890       6.65644439       9.22150893  F        0       0.00000000       0.00000000       0.00000000      -0.00544900       0.00292000      -0.14083300       0.00000000
Cu       5.70511456       7.42052396       7.06036563  F        0       0.00000000       0.00000000       0.00000000      -0.02084900       0.01132400       0.08133300       0.00000000
Cu       5.70511456       4.36420615       9.22150893  F        0       0.00000000       0.00000000       0.00000000       0.02090300      -0.02510600       0.13244900       0.00000000
Cu      13.64565964       5.89236482      11.38265128  F        0       0.00000000       0.00000000       0.00000000       0.01252900       0.00046700       0.03312600       0.00000000
Cu       7.02853890       5.12828572       7.06036563  F        0       0.00000000       0.00000000       0.00000000      -0.00894700      -0.04074400       0.06423200       0.00000000
Cu       4.38169022       6.65644439       9.22150893  F        0       0.00000000       0.00000000       0.00000000       0.00202700       0.02179000       0.14401100       0.00000000
Cu       7.02853890       8.18460305      11.38265128  F        0       0.00000000       0.00000000       0.00000000      -0.01047100       0.00160500       0.03265600       0.00000000
Cu       8.35196228       7.42052396       7.06036563  F        0       0.00000000       0.00000000       0.00000000       0.02531500       0.00806600       0.08124400       0.00000000
Cu       3.05826588       4.36420615       9.22150893  F        0       0.00000000       0.00000000       0.00000000      -0.01603200      -0.01569800       0.12778400       0.00000000
Cu       5.70511456       5.89236482      11.38265128  F        0       0.00000000       0.00000000       0.00000000      -0.00162900      -0.00429700       0.02708700       0.00000000
Ga      12.38222475       3.59524470      18.09843135  T        1      -0.00283900      -0.00134600       0.00578900      -0.00283900      -0.00134600       0.00578900       0.00000000
Ga       4.38169022       5.12828572      13.54379363  F        0       0.00000000       0.00000000       0.00000000       0.00260700      -0.00584700      -0.08967500       0.00000000
Ga       7.02853890       6.65644439      15.70493598  F        0       0.00000000       0.00000000       0.00000000       0.09908300      -0.03053500      -0.01787100       0.00000000
Cu       5.70511456       7.42052396      13.54379363  F        0       0.00000000       0.00000000       0.00000000      -0.02743000       0.00766600       0.02117300       0.00000000
Cu       5.70511456       4.36420615      15.70493598  F        0       0.00000000       0.00000000       0.00000000       0.13577200       0.11238500       0.19490200       0.00000000
Cu      13.62062823       5.89303018      17.78656487  T        1      -0.00772100      -0.00274700       0.00783900      -0.00772100      -0.00274700       0.00783900       0.00000000
Cu       7.02853890       5.12828572      13.54379363  F        0       0.00000000       0.00000000       0.00000000       0.01444600      -0.00224400      -0.02652800       0.00000000
Cu       4.38169022       6.65644439      15.70493598  F        0       0.00000000       0.00000000       0.00000000      -0.05502100       0.15417600      -0.05790600       0.00000000
Cu       7.10298709       8.14104564      17.86113742  T        1       0.00490600      -0.00150800       0.00988800       0.00490600      -0.00150800       0.00988800       0.00000000
Cu       8.35196228       7.42052396      13.54379363  F        0       0.00000000       0.00000000       0.00000000      -0.01210400      -0.03021000      -0.02558500       0.00000000
Cu       3.05826588       4.36420615      15.70493598  F        0       0.00000000       0.00000000       0.00000000      -0.09172200      -0.09343300      -0.12418000       0.00000000
Cu       5.70797738       5.95568709      17.79834108  T        1       0.01123500       0.00167700       0.00362600       0.01123500       0.00167700       0.00362600       0.00000000
O        7.94155773       4.58490114      19.45657306  T        2       0.00252800       0.01197100      -0.00224000       0.00252800       0.01197100      -0.00224000       0.00000000
H        7.39804200       5.07258241      20.10714303  T        2      -0.00020200       0.00656300       0.01208000      -0.00020200       0.00656300       0.01208000       0.00000000
C        5.70586221       7.45254984      19.34228585  T        2       0.03182000      -0.02728100       0.02151900       0.03182000      -0.02728100       0.02151900       0.00000000
H        5.43465373       6.61029391      20.00975141  T        2       0.00038100       0.02419800       0.01008600       0.00038100       0.02419800       0.01008600       0.00000000
H        6.30763235       8.15194715      19.95958820  T        2       0.00951100      -0.02784000      -0.00563600       0.00951100      -0.02784000      -0.00563600       0.00000000
101
Lattice="10.587393760681152 0.0 6.482909069225045e-16 5.293696880340576 9.168951988220215 6.482909069225045e-16 0.0 0.0 38.900569915771484" Properties=species:S:1:pos:R:3:move_mask:L:1:tags:I:1:DFT_forces:R:3:forces:R:3 DFT_energy=-319.53933046 energy=-319.53933046 pbc="T T T"
Ga       9.67538710       8.18460305      11.38265128  F        0       0.00000000       0.00000000       0.00000000       0.00000000       0.00000000       0.00000000
Ga       7.02853866       0.54380973       7.06036563  F        0       0.00000000       0.00000000       0.00000000       0.00000000       0.00000000       0.00000000
Ga       9.67538710       2.07196840       9.22150893  F        0       0.00000000       0.00000000       0.00000000       0.00000000       0.00000000       0.00000000
Cu       8.35196276       2.83604773       7.06036563  F        0       0.00000000       0.00000000       0.00000000       0.00000000       0.00000000       0.00000000
Cu      13.64565964       8.94868239       9.22150893  F        0       0.00000000       0.00000000       0.00000000       0.00000000       0.00000000       0.00000000
Cu       5.70511444       1.30788906      11.38265128  F        0       0.00000000       0.00000000       0.00000000       0.00000000       0.00000000       0.00000000
Cu       9.67538710       0.54380973       7.06036563  F        0       0.00000000       0.00000000       0.00000000       0.00000000       0.00000000       0.00000000
Cu       7.02853866       2.07196840       9.22150893  F        0       0.00000000       0.00000000       0.00000000       0.00000000       0.00000000       0.00000000
Cu       9.67538710       3.60012706      11.38265128  F        0       0.00000000       0.00000000       0.00000000       0.00000000       0.00000000       0.00000000
Cu      10.99881144       2.83604773       7.06036563  F        0       0.00000000       0.00000000       0.00000000       0.00000000       0.00000000       0.00000000
Cu      10.99881132       8.94868239       9.22150893  F        0       0.00000000       0.00000000       0.00000000       0.00000000       0.00000000       0.00000000
Cu       8.35196276       1.30788906      11.38265128  F        0       0.00000000       0.00000000       0.00000000       0.00000000       0.00000000       0.00000000
Ga       9.75197225       8.19793966      18.06581917  T        1       0.01793400      -0.00222400      -0.00661200       0.01793400      -0.00222400      -0.00661200
Ga       7.02853866       0.54380973      13.54379363  F        0       0.00000000       0.00000000       0.00000000       0.00000000       0.00000000       0.00000000
Ga       9.67538710       2.07196840      15.70493598  F        0       0.00000000       0.00000000       0.00000000       0.00000000       0.00000000       0.00000000
Cu       8.35196276       2.83604773      13.54379363  F        0       0.00000000       0.00000000       0.00000000       0.00000000       0.00000000       0.00000000
Cu      13.64565964       8.94868239      15.70493598  F        0       0.00000000       0.00000000       0.00000000       0.00000000       0.00000000       0.00000000
Cu       5.72025505       1.26592605      17.85415778  T        1       0.01792700      -0.01751200      -0.00388400       0.01792700      -0.01751200      -0.00388400
Cu       9.67538710       0.54380973      13.54379363  F        0       0.00000000       0.00000000       0.00000000       0.00000000       0.00000000       0.00000000
Cu       7.02853866       2.07196840      15.70493598  F        0       0.00000000       0.00000000       0.00000000       0.00000000       0.00000000       0.00000000
Cu       9.75984561       3.56552503      17.79642255  T        1       0.00565500      -0.01538900      -0.00182300       0.00565500      -0.01538900      -0.00182300
Cu      10.99881144       2.83604773      13.54379363  F        0       0.00000000       0.00000000       0.00000000       0.00000000       0.00000000       0.00000000
Cu      10.99881132       8.94868239      15.70493598  F        0       0.00000000       0.00000000       0.00000000       0.00000000       0.00000000       0.00000000
Cu       8.42588577       1.22176755      17.87594979  T        1       0.04693300      -0.07795500       0.02347800       0.04693300      -0.07795500       0.02347800
Ga       7.02853866       3.60012706      11.38265128  F        0       0.00000000       0.00000000       0.00000000       0.00000000       0.00000000       0.00000000
Ga       9.67538710       5.12828572       7.06036563  F        0       0.00000000       0.00000000       0.00000000       0.00000000       0.00000000       0.00000000
Ga      12.32223530       6.65644439       9.22150893  F        0       0.00000000       0.00000000       0.00000000       0.00000000       0.00000000       0.00000000
Cu      10.99881144       7.42052396       7.06036563  F        0       0.00000000       0.00000000       0.00000000       0.00000000       0.00000000       0.00000000
Cu      10.99881144       4.36420615       9.22150893  F        0       0.00000000       0.00000000       0.00000000       0.00000000       0.00000000       0.00000000
Cu       8.35196276       5.89236482      11.38265128  F        0       0.00000000       0.00000000       0.00000000       0.00000000       0.00000000       0.00000000
Cu      12.32223530       5.12828572       7.06036563  F        0       0.00000000       0.00000000       0.00000000       0.00000000       0.00000000       0.00000000
Cu       9.67538710       6.65644439       9.22150893  F        0       0.00000000       0.00000000       0.00000000       0.00000000       0.00000000       0.00000000
Cu      12.32223530       8.18460305      11.38265128  F        0       0.00000000       0.00000000       0.00000000       0.00000000       0.00000000       0.00000000
Cu      13.64565964       7.42052396       7.06036563  F        0       0.00000000       0.00000000       0.00000000       0.00000000       0.00000000       0.00000000
Cu       8.35196276       4.36420615       9.22150893  F        0       0.00000000       0.00000000       0.00000000       0.00000000       0.00000000       0.00000000
Cu      10.99881144       5.89236482      11.38265128  F        0       0.00000000       0.00000000       0.00000000       0.00000000       0.00000000       0.00000000
Ga       7.06064787       3.32097916      18.28338929  T        1       0.00267600      -0.02837800       0.00619800       0.00267600      -0.02837800       0.00619800
Ga       9.67538710       5.12828572      13.54379363  F        0       0.00000000       0.00000000       0.00000000       0.00000000       0.00000000       0.00000000
Ga      12.32223530       6.65644439      15.70493598  F        0       0.00000000       0.00000000       0.00000000       0.00000000       0.00000000       0.00000000
Cu      10.99881144       7.42052396      13.54379363  F        0       0.00000000       0.00000000       0.00000000       0.00000000       0.00000000       0.00000000
Cu      10.99881144       4.36420615      15.70493598  F        0       0.00000000       0.00000000       0.00000000       0.00000000       0.00000000       0.00000000
Cu       8.48520321       5.95939684      17.88520241  T        1       0.00931900      -0.00723400       0.01442200       0.00931900      -0.00723400       0.01442200
Cu      12.32223530       5.12828572      13.54379363  F        0       0.00000000       0.00000000       0.00000000       0.00000000       0.00000000       0.00000000
Cu       9.67538710       6.65644439      15.70493598  F        0       0.00000000       0.00000000       0.00000000       0.00000000       0.00000000       0.00000000
Cu      12.39239294       8.18633460      17.84982287  T        1       0.07626200      -0.01884700       0.02537700       0.07626200      -0.01884700       0.02537700
Cu      13.64565964       7.42052396      13.54379363  F        0       0.00000000       0.00000000       0.00000000       0.00000000       0.00000000       0.00000000
Cu       8.35196276       4.36420615      15.70493598  F        0       0.00000000       0.00000000       0.00000000       0.00000000       0.00000000       0.00000000
Cu      11.05676080       5.88692596      17.83153787  T        1       0.00805200      -0.00932300       0.00372300       0.00805200      -0.00932300       0.00372300
Ga      14.96908398       8.18460305      11.38265128  F        0       0.00000000       0.00000000       0.00000000       0.00000000       0.00000000       0.00000000
Ga       1.73484154       0.54380973       7.06036563  F        0       0.00000000       0.00000000       0.00000000       0.00000000       0.00000000       0.00000000
Ga       4.38169022       2.07196840       9.22150893  F        0       0.00000000       0.00000000       0.00000000       0.00000000       0.00000000       0.00000000
Cu       3.05826588       2.83604773       7.06036563  F        0       0.00000000       0.00000000       0.00000000       0.00000000       0.00000000       0.00000000
Cu       8.35196276       8.94868239       9.22150893  F        0       0.00000000       0.00000000       0.00000000       0.00000000       0.00000000       0.00000000
Cu      10.99881144       1.30788906      11.38265128  F        0       0.00000000       0.00000000       0.00000000       0.00000000       0.00000000       0.00000000
Cu       4.38169022       0.54380973       7.06036563  F        0       0.00000000       0.00000000       0.00000000       0.00000000       0.00000000       0.00000000
Cu       1.73484154       2.07196840       9.22150893  F        0       0.00000000       0.00000000       0.00000000       0.00000000       0.00000000       0.00000000
Cu       4.38169022       3.60012706      11.38265128  F        0       0.00000000       0.00000000       0.00000000       0.00000000       0.00000000       0.00000000
Cu       5.70511456       2.83604773       7.06036563  F        0       0.00000000       0.00000000       0.00000000       0.00000000       0.00000000       0.00000000
Cu       5.70511456       8.94868239       9.22150893  F        0       0.00000000       0.00000000       0.00000000       0.00000000       0.00000000       0.00000000
Cu       3.05826588       1.30788906      11.38265128  F        0       0.00000000       0.00000000       0.00000000       0.00000000       0.00000000       0.00000000
Ga      15.04267095       8.11868557      18.62024021  T        1       0.12781900      -0.12576900       0.74443000       0.12781900      -0.12576900       0.74443000
Ga       1.73484154       0.54380973      13.54379363  F        0       0.00000000       0.00000000       0.00000000       0.00000000       0.00000000       0.00000000
Ga       4.38169022       2.07196840      15.70493598  F        0       0.00000000       0.00000000       0.00000000       0.00000000       0.00000000       0.00000000