101
Lattice="12.230278968811035 0.0 -1.9667789515472e-15 -6.115139484405518 13.62663459777832 -1.1355528831481934 0.0 0.0 32.931034088134766" Properties=species:S:1:pos:R:3:move_mask:L:1:tags:I:1:DFT_forces:R:3:forces:R:3:magmoms:R:1 DFT_energy=-491.7689253 energy=-491.7689253 dipole="_JSON [[0.0, 0.0, 0.0]]" magmom=0.0 free_energy=-491.7710883 pbc="T T T"
Ga       1.72694280      10.04807501       9.99924406  F        0       0.00000000       0.00000000       0.00000000      -0.06973100      -0.07378800       0.30892800       0.00000000
Ga       7.81934442       2.18316206      13.49324993  T        1       0.00203900      -0.00969700       0.01074600       0.00203900      -0.00969700       0.01074600       0.00000000
Ga       4.78451254      11.18362796       7.16036161  F        0       0.00000000       0.00000000       0.00000000       0.01845500       0.35002800      -0.36905900       0.00000000
Ga       7.84208228       0.39587557       9.43146690  F        0       0.00000000       0.00000000       0.00000000       0.03175600      -0.20241600       0.00709200       0.00000000
Ga       4.79443270      12.81166693      11.12217031  T        1       0.00833400      -0.02750200      -0.01008500       0.00833400      -0.02750200      -0.01008500       0.00000000
Ga      10.89965203       1.53142845       6.59258541  F        0       0.00000000       0.00000000       0.00000000       0.00097200      -0.91604500       0.80248500       0.00000000
Ir       3.25572767      13.17084562       6.30869707  F        0       0.00000000       0.00000000       0.00000000      -0.03840600       0.45752900       0.60031300       0.00000000
Ir       6.31329753      12.03529274       9.14757951  F        0       0.00000000       0.00000000       0.00000000      -0.06161400      -0.01982000      -0.22969300       0.00000000
Ir       3.26827375      10.84886464      11.95896111  T        1       0.01643600       0.00243400      -0.01716400       0.01643600       0.00243400      -0.01716400       0.00000000
Ir       6.30008159      10.82769007      11.95782833  T        1      -0.00760300       0.00248200       0.00638600      -0.00760300       0.00248200       0.00638600       0.00000000
Ir       6.31329753      13.17084562       6.30869707  F        0       0.00000000       0.00000000       0.00000000       0.04026000       0.47676900       0.58622000       0.00000000
Ir       3.25572767      12.03529274       9.14757951  F        0       0.00000000       0.00000000       0.00000000       0.07297700      -0.01143300      -0.20704100       0.00000000
Ir       6.32772793       0.13899526      14.01063450  T        1      -0.00355900      -0.01316900       0.03007100      -0.00355900      -0.01316900       0.03007100       0.00000000
Ir       6.31329741       2.38309347       8.57980236  F        0       0.00000000       0.00000000       0.00000000       0.02270700       0.38959100      -0.29325200       0.00000000
Ir       9.37086716       1.24754011      11.41868480  F        0       0.00000000       0.00000000       0.00000000       0.08096400      -0.02567700      -0.13922100       0.00000000
Ir       6.31329741       1.24754011      11.41868480  F        0       0.00000000       0.00000000       0.00000000      -0.10477800       0.10889200       0.03406000       0.00000000
Ir       9.42250374       0.22559379      13.99283356  T        1      -0.01290100       0.00090900       0.00775900      -0.01290100       0.00090900       0.00775900       0.00000000
Ir       9.37086716       2.38309347       8.57980236  F        0       0.00000000       0.00000000       0.00000000      -0.00241400       0.31330100      -0.35325000       0.00000000
Zn      10.89965203       0.39587557       9.43146690  F        0       0.00000000       0.00000000       0.00000000      -0.00223800      -0.12482900      -0.08098200       0.00000000
Zn       1.74018083      12.80262876      11.13365571  T        1       0.02199200      -0.00639300      -0.02058500       0.02199200      -0.00639300      -0.02058500       0.00000000
Zn       7.84208228       1.53142845       6.59258541  F        0       0.00000000       0.00000000       0.00000000       0.00843600      -0.50124200       0.08186200       0.00000000
Zn       4.78451254      10.04807501       9.99924406  F        0       0.00000000       0.00000000       0.00000000      -0.01478100      -0.07380500       0.00547900       0.00000000
Zn      10.90384018       2.32770957      13.67512083  T        1       0.00494600       0.00113300       0.01085100       0.00494600       0.00113300       0.01085100       0.00000000
Zn       1.72694280      11.18362796       7.16036161  F        0       0.00000000       0.00000000       0.00000000       0.00072400       0.00389400      -0.78660500       0.00000000
Ga       4.78451254       3.23475801      10.56701930  F        0       0.00000000       0.00000000       0.00000000       0.01089500      -0.12844000       0.43931100       0.00000000
Ga       4.78447139       8.97322688      12.94860404  T        1       0.00585500      -0.02932100      -0.01111700       0.00585500      -0.02932100      -0.01111700       0.00000000
Ga       7.84208228       4.37031090       7.72813781  F        0       0.00000000       0.00000000       0.00000000       0.04767300       0.33857400      -0.41448500       0.00000000
Ga       4.78451254       7.20919334       8.86369117  F        0       0.00000000       0.00000000       0.00000000       0.01239600      -0.10140500      -0.21069800       0.00000000
Ga       7.83097870       5.98233127      11.63656691  T        1      -0.04070500       0.02152100       0.00446500      -0.04070500       0.02152100       0.00446500       0.00000000
Ga       7.84208228       8.34474575       6.02480873  F        0       0.00000000       0.00000000       0.00000000      -0.01741100      -0.94836800       0.79419800       0.00000000
Ir       6.31329741       6.35752880       6.87647327  F        0       0.00000000       0.00000000       0.00000000      -0.00653300       0.51133000       0.53544800       0.00000000
Ir       9.37086716       5.22197544       9.71535572  F        0       0.00000000       0.00000000       0.00000000       0.06402200      -0.03021000      -0.18296600       0.00000000
Ir       6.22985660       4.07112098      12.66946950  T        1       0.01069700       0.00289400      -0.01730600       0.01069700       0.00289400      -0.01730600       0.00000000
Ir       9.32496513       4.04415342      12.53328836  T        1       0.00753900      -0.01534200       0.00644200       0.00753900      -0.01534200       0.00644200       0.00000000
Ir       9.37086716       6.35752880       6.87647327  F        0       0.00000000       0.00000000       0.00000000       0.00786500       0.49651900       0.60058500       0.00000000
Ir       6.31329741       5.22197544       9.71535572  F        0       0.00000000       0.00000000       0.00000000       0.11825200      -0.26687300      -0.37557500       0.00000000
Ir       3.30543879       6.91705025      13.48974316  T        1      -0.00857900       0.01781800       0.03562600      -0.00857900       0.01781800       0.03562600       0.00000000
Ir       3.25572755       9.19641029       8.01202663  F        0       0.00000000       0.00000000       0.00000000      -0.00224600       0.35404600      -0.32640200       0.00000000
Ir       6.31329741       8.06085789      10.85090908  F        0       0.00000000       0.00000000       0.00000000       0.16639700       0.14833500      -0.08168000       0.00000000
Ir       3.25572755       8.06085789      10.85090908  F        0       0.00000000       0.00000000       0.00000000      -0.15874600      -0.01669600      -0.00509900       0.00000000
Ir       6.30782792       6.84728930      13.44567815  T        1      -0.00681200       0.00199600       0.01377200      -0.00681200       0.00199600       0.01377200       0.00000000
Ir       6.31329741       9.19641029       8.01202663  F        0       0.00000000       0.00000000       0.00000000      -0.00450900       0.34976800      -0.29208200       0.00000000
Zn       7.84208228       7.20919334       8.86369117  F        0       0.00000000       0.00000000       0.00000000       0.02781800      -0.10713600      -0.13393300       0.00000000
Zn       4.77219032       6.08011191      11.54578532  T        1       0.02336900      -0.00574400       0.01746800       0.02336900      -0.00574400       0.01746800       0.00000000
Zn       4.78451254       8.34474575       6.02480873  F        0       0.00000000       0.00000000       0.00000000       0.00911500      -0.52461500       0.08316300       0.00000000
Zn       7.84208228       3.23475801      10.56701930  F        0       0.00000000       0.00000000       0.00000000      -0.16103500      -0.06702100       0.19575000       0.00000000
Zn       7.78372763       9.09712748      13.14473745  T        1       0.00268900      -0.02619100       0.00087400       0.00268900      -0.02619100       0.00087400       0.00000000
Zn       4.78451254       4.37031090       7.72813781  F        0       0.00000000       0.00000000       0.00000000      -0.00261800      -0.01245600      -0.85665300       0.00000000
Ga      -4.38819668      10.04807501       9.99924406  F        0       0.00000000       0.00000000       0.00000000       0.04240000      -0.09397700       0.29125200       0.00000000
Ga       1.74401370       2.22209721      13.48203770  T        1       0.01115500       0.00643500      -0.00202000       0.01115500       0.00643500      -0.00202000       0.00000000
Ga      -1.33062670      11.18362796       7.16036161  F        0       0.00000000       0.00000000       0.00000000       0.01180900       0.36512900      -0.37225100       0.00000000
Ga       1.72694280       0.39587557       9.43146690  F        0       0.00000000       0.00000000       0.00000000      -0.01828000      -0.19774600      -0.00820400       0.00000000
Ga      -1.34915009      12.80481771      11.14141233  T        1       0.00691900      -0.01003100      -0.00682000       0.00691900      -0.01003100      -0.00682000       0.00000000
Ga       4.78451278       1.53142845       6.59258541  F        0       0.00000000       0.00000000       0.00000000       0.00213500      -0.92780100       0.81079600       0.00000000
Ir      -2.85941146      13.17084562       6.30869707  F        0       0.00000000       0.00000000       0.00000000      -0.01852100       0.48271100       0.60683600       0.00000000
Ir       0.19815805      12.03529274       9.14757951  F        0       0.00000000       0.00000000       0.00000000      -0.06564400      -0.01302400      -0.12233000       0.00000000
Ir      -2.85941158      10.82453056      11.97864340  T        1      -0.02683700       0.00871800      -0.02375600      -0.02683700       0.00871800      -0.02375600       0.00000000
Ir       0.18562242      10.84199230      11.97458513  T        1       0.00348800      -0.00291000      -0.00540600       0.00348800      -0.00291000      -0.00540600       0.00000000
Ir       0.19815805      13.17084562       6.30869707  F        0       0.00000000       0.00000000       0.00000000       0.02389500       0.48340700       0.62140300       0.00000000
Ir      -2.85941146      12.03529274       9.14757951  F        0       0.00000000       0.00000000       0.00000000       0.03746300      -0.00533600      -0.15453400       0.00000000
Ir       0.17555633       0.24678989      13.99481751  T        1       0.00490300       0.00117100       0.01463300       0.00490300       0.00117100       0.01463300       0.00000000
Ir       0.19815805       2.38309347       8.57980236  F        0       0.00000000       0.00000000       0.00000000       0.00305100       0.31119900      -0.33099300       0.00000000
Ir       3.25572803       1.24754011      11.41868480  F        0       0.00000000       0.00000000       0.00000000       0.07058300       0.11661900       0.00095700       0.00000000
Ir       0.19815805       1.24754011      11.41868480  F        0       0.00000000       0.00000000       0.00000000      -0.06375200       0.01383200      -0.16077700       0.00000000
Ir       3.20124430       0.16718004      14.01707480  T        1       0.02082400      -0.02020700       0.03332400       0.02082400      -0.02020700       0.03332400       0.00000000
Ir       3.25572803       2.38309347       8.57980236  F        0       0.00000000       0.00000000       0.00000000      -0.02503600       0.38530500      -0.29176900       0.00000000
Zn       4.78451278       0.39587557       9.43146690  F        0       0.00000000       0.00000000       0.00000000       0.00002700      -0.14299600      -0.08511200       0.00000000
Zn      -4.40506853      12.79654025      11.13229806  T        1      -0.01238800      -0.04187200      -0.02191400      -0.01238800      -0.04187200      -0.02191400       0.00000000
Zn       1.72694280       1.53142845       6.59258541  F        0       0.00000000       0.00000000       0.00000000      -0.01263300      -0.50574200       0.08357500       0.00000000
Zn      -1.33062670      10.04807501       9.99924406  F        0       0.00000000       0.00000000       0.00000000      -0.00032200      -0.08651600       0.12883200       0.00000000
Zn       4.78096356       2.13954046      13.64844057  T        1       0.00003000      -0.00481000      -0.00240100       0.00003000      -0.00481000      -0.00240100       0.00000000
Zn      -4.38819668      11.18362796       7.16036161  F        0       0.00000000       0.00000000       0.00000000      -0.00841800      -0.00919300      -0.80081700       0.00000000
Ga      -1.33062694       3.23475801      10.56701930  F        0       0.00000000       0.00000000       0.00000000      -0.01173500      -0.07734600       0.35241900       0.00000000
Ga      -1.35019551       8.95593305      12.95473722  T        1       0.00678900       0.03528400      -0.01161500       0.00678900       0.03528400      -0.01161500       0.00000000
Ga       1.72694280       4.37031090       7.72813781  F        0       0.00000000       0.00000000       0.00000000      -0.03315800       0.34902800      -0.40258700       0.00000000
Ga      -1.33062694       7.20919334       8.86369117  F        0       0.00000000       0.00000000       0.00000000       0.00464400      -0.20040700       0.04417000       0.00000000
Ga       1.76124531       6.00053929      11.67515827  T        1       0.00228600       0.02409500       0.00822200       0.00228600       0.02409500       0.00822200       0.00000000
Ga       1.72694280       8.34474575       6.02480873  F        0       0.00000000       0.00000000       0.00000000      -0.00378400      -0.94896900       0.81005600       0.00000000
Ir       0.19815805       6.35752880       6.87647327  F        0       0.00000000       0.00000000       0.00000000      -0.00439800       0.48565500       0.58793200       0.00000000
Ir       3.25572803       5.22197544       9.71535572  F        0       0.00000000       0.00000000       0.00000000      -0.23494000      -0.25976100      -0.40580700       0.00000000
Ir       0.23579819       4.07240348      12.52764643  T        1       0.00145100      -0.03471300      -0.02127700       0.00145100      -0.03471300      -0.02127700       0.00000000
Ir       3.35814646       4.08245870      12.65106332  T        1      -0.00223600      -0.02080600       0.00943300      -0.00223600      -0.02080600       0.00943300       0.00000000
Ir       3.25572803       6.35752880       6.87647327  F        0       0.00000000       0.00000000       0.00000000       0.02169300       0.51304900       0.56465900       0.00000000
Ir       0.19815805       5.22197544       9.71535572  F        0       0.00000000       0.00000000       0.00000000       0.00983100       0.01821100      -0.05287600       0.00000000
Ir      -3.01901437       6.99450629      13.42765223  T        1       0.00805400       0.01401500       0.00529300       0.00805400       0.01401500       0.00529300       0.00000000
Ir      -2.85941181       9.19641029       8.01202663  F        0       0.00000000       0.00000000       0.00000000       0.04046000       0.35608200      -0.32585500       0.00000000
Ir       0.19815805       8.06085789      10.85090908  F        0       0.00000000       0.00000000       0.00000000       0.08185100      -0.08087600      -0.09570900       0.00000000
Ir      -2.85941181       8.06085789      10.85090908  F        0       0.00000000       0.00000000       0.00000000      -0.08098700      -0.06243000      -0.10850300       0.00000000
Ir       0.29779721       7.01448395      13.41575129  T        1      -0.03198700      -0.00133500       0.01328600      -0.03198700      -0.00133500       0.01328600       0.00000000
Ir       0.19815805       9.19641029       8.01202663  F        0       0.00000000       0.00000000       0.00000000      -0.04198400       0.36301100      -0.34132700       0.00000000
Zn       1.72694280       7.20919334       8.86369117  F        0       0.00000000       0.00000000       0.00000000      -0.03664500      -0.11673200      -0.12252500       0.00000000
Zn      -1.34558494       6.00988176      11.74582248  T        1       0.00020600       0.00649600      -0.02402900       0.00020600       0.00649600      -0.02402900       0.00000000
Zn      -1.33062694       8.34474575       6.02480873  F        0       0.00000000       0.00000000       0.00000000       0.00088900      -0.51224700       0.08110500       0.00000000
Zn       1.72694280       3.23475801      10.56701930  F        0       0.00000000       0.00000000       0.00000000       0.15532800      -0.01495800       0.22833400       0.00000000
Zn       1.76480635       9.08847717      13.09249355  T        1       0.01660700      -0.00462600       0.01988500       0.01660700      -0.00462600       0.01988500       0.00000000
Zn      -1.33062694       4.37031090       7.72813781  F        0       0.00000000       0.00000000       0.00000000       0.00996400       0.00497900      -0.79155800       0.00000000
H        3.84733173       7.29859422      16.22305160  T        2      -0.01245900       0.01645400      -0.00309800      -0.01245900       0.01645400      -0.00309800       0.00000000
H        2.31551961       7.42589879      16.00833972  T        2      -0.01494800      -0.02803300      -0.00932400      -0.01494800      -0.02803300      -0.00932400       0.00000000
O        3.06597840       6.80726103      15.90226511  T        2       0.03661600      -0.00753500      -0.00354200       0.03661600      -0.00753500      -0.00354200       0.00000000
C        4.82301161       5.34859002      13.80745995  T        2       0.00909300       0.01076200      -0.00472900       0.00909300       0.01076200      -0.00472900       0.00000000
H        4.79050130       5.08111140      14.88342739  T        2      -0.00171000      -0.00284200      -0.00735800      -0.00171000      -0.00284200      -0.00735800       0.00000000
101
Lattice="12.230278968811035 0.0 -1.9667789515472e-15 -6.115139484405518 13.62663459777832 -1.1355528831481934 0.0 0.0 32.931034088134766" Properties=species:S:1:pos:R:3:move_mask:L:1:tags:I:1:DFT_forces:R:3:forces:R:3 DFT_energy=-491.40621479 energy=-491.40621479 pbc="T T T"
Ga       1.72694280      10.04807501       9.99924406  F        0       0.00000000       0.00000000       0.00000000       0.00000000       0.00000000       0.00000000
Ga       7.85149276       2.15261676      13.52796000  T        1      -0.00074000       0.00802700      -0.00469700      -0.00074000       0.00802700      -0.00469700
Ga       4.78451254      11.18362796       7.16036161  F        0       0.00000000       0.00000000       0.00000000       0.00000000       0.00000000       0.00000000
Ga       7.84208228       0.39587557       9.43146690  F        0       0.00000000       0.00000000       0.00000000       0.00000000       0.00000000       0.00000000
Ga       4.79635165      12.84750434      11.07808400  T        1      -0.00006800       0.00548500      -0.00622700      -0.00006800       0.00548500      -0.00622700
Ga      10.89965203       1.53142845       6.59258541  F        0       0.00000000       0.00000000       0.00000000       0.00000000       0.00000000       0.00000000
Ir       3.25572767      13.17084562       6.30869707  F        0       0.00000000       0.00000000       0.00000000       0.00000000       0.00000000       0.00000000
Ir       6.31329753      12.03529274       9.14757951  F        0       0.00000000       0.00000000       0.00000000       0.00000000       0.00000000       0.00000000
Ir       3.25326871      10.93593972      11.94058334  T        1       0.00264200       0.00445200       0.00222100       0.00264200       0.00445200       0.00222100
Ir       6.32493395      10.91167086      11.94379793  T        1      -0.00097600       0.00193600       0.00155800      -0.00097600       0.00193600       0.00155800
Ir       6.31329753      13.17084562       6.30869707  F        0       0.00000000       0.00000000       0.00000000       0.00000000       0.00000000       0.00000000
Ir       3.25572767      12.03529274       9.14757951  F        0       0.00000000       0.00000000       0.00000000       0.00000000       0.00000000       0.00000000
Ir       6.26854574       0.17056082      14.02058539  T        1       0.00796700      -0.01447500      -0.00012700       0.00796700      -0.01447500      -0.00012700
Ir       6.31329741       2.38309347       8.57980236  F        0       0.00000000       0.00000000       0.00000000       0.00000000       0.00000000       0.00000000
Ir       9.37086716       1.24754011      11.41868480  F        0       0.00000000       0.00000000       0.00000000       0.00000000       0.00000000       0.00000000
Ir       6.31329741       1.24754011      11.41868480  F        0       0.00000000       0.00000000       0.00000000       0.00000000       0.00000000       0.00000000
Ir       9.43981189       0.17829749      14.00341773  T        1      -0.00167100      -0.00315900      -0.00394800      -0.00167100      -0.00315900      -0.00394800
Ir       9.37086716       2.38309347       8.57980236  F        0       0.00000000       0.00000000       0.00000000       0.00000000       0.00000000       0.00000000
Zn      10.89965203       0.39587557       9.43146690  F        0       0.00000000       0.00000000       0.00000000       0.00000000       0.00000000       0.00000000
Zn       1.71833214      12.85718800      11.12574779  T        1       0.00119500      -0.00759600      -0.00296300       0.00119500      -0.00759600      -0.00296300
Zn       7.84208228       1.53142845       6.59258541  F        0       0.00000000       0.00000000       0.00000000       0.00000000       0.00000000       0.00000000
Zn       4.78451254      10.04807501       9.99924406  F        0       0.00000000       0.00000000       0.00000000       0.00000000       0.00000000       0.00000000
Zn      10.91021523       2.29336084      13.70630596  T        1       0.00027500      -0.00655300       0.00361400       0.00027500      -0.00655300       0.00361400
Zn       1.72694280      11.18362796       7.16036161  F        0       0.00000000       0.00000000       0.00000000       0.00000000       0.00000000       0.00000000
Ga       4.78451254       3.23475801      10.56701930  F        0       0.00000000       0.00000000       0.00000000       0.00000000       0.00000000       0.00000000
Ga       4.78508964       9.11754555      12.85898996  T        1      -0.00580500       0.00786900       0.01299900      -0.00580500       0.00786900       0.01299900
Ga       7.84208228       4.37031090       7.72813781  F        0       0.00000000       0.00000000       0.00000000       0.00000000       0.00000000       0.00000000
Ga       4.78451254       7.20919334       8.86369117  F        0       0.00000000       0.00000000       0.00000000       0.00000000       0.00000000       0.00000000
Ga       7.83315870       5.93689261      11.66641235  T        1       0.01083900      -0.00728400      -0.00812600       0.01083900      -0.00728400      -0.00812600
Ga       7.84208228       8.34474575       6.02480873  F        0       0.00000000       0.00000000       0.00000000       0.00000000       0.00000000       0.00000000
Ir       6.31329741       6.35752880       6.87647327  F        0       0.00000000       0.00000000       0.00000000       0.00000000       0.00000000       0.00000000
Ir       9.37086716       5.22197544       9.71535572  F        0       0.00000000       0.00000000       0.00000000       0.00000000       0.00000000       0.00000000
Ir       6.29995596       3.96787151      12.53336200  T        1      -0.00653000       0.00370500       0.01662400      -0.00653000       0.00370500       0.01662400
Ir       9.37570640       4.00512893      12.52384091  T        1       0.00277000      -0.00900100       0.00618000       0.00277000      -0.00900100       0.00618000
Ir       9.37086716       6.35752880       6.87647327  F        0       0.00000000       0.00000000       0.00000000       0.00000000       0.00000000       0.00000000
Ir       6.31329741       5.22197544       9.71535572  F        0       0.00000000       0.00000000       0.00000000       0.00000000       0.00000000       0.00000000
Ir       3.25991184       7.10730207      13.52287323  T        1      -0.01185300      -0.00739100      -0.00016400      -0.01185300      -0.00739100      -0.00016400
Ir       3.25572755       9.19641029       8.01202663  F        0       0.00000000       0.00000000       0.00000000       0.00000000       0.00000000       0.00000000
Ir       6.31329741       8.06085789      10.85090908  F        0       0.00000000       0.00000000       0.00000000       0.00000000       0.00000000       0.00000000
Ir       3.25572755       8.06085789      10.85090908  F        0       0.00000000       0.00000000       0.00000000       0.00000000       0.00000000       0.00000000
Ir       6.44071591       7.11418240      13.47319052  T        1      -0.00130000      -0.02355500      -0.02144900      -0.00130000      -0.02355500      -0.02144900
Ir       6.31329741       9.19641029       8.01202663  F        0       0.00000000       0.00000000       0.00000000       0.00000000       0.00000000       0.00000000
Zn       7.84208228       7.20919334       8.86369117  F        0       0.00000000       0.00000000       0.00000000       0.00000000       0.00000000       0.00000000
Zn       4.78089475       6.00405177      11.69989756  T        1       0.00028700      -0.00028200      -0.01995300       0.00028700      -0.00028200      -0.01995300
Zn       4.78451254       8.34474575       6.02480873  F        0       0.00000000       0.00000000       0.00000000       0.00000000       0.00000000       0.00000000
Zn       7.84208228       3.23475801      10.56701930  F        0       0.00000000       0.00000000       0.00000000       0.00000000       0.00000000       0.00000000
Zn       7.84715895       9.34792564      13.28424677  T        1       0.01123600       0.01096000      -0.00486100       0.01123600       0.01096000      -0.00486100
Zn       4.78451254       4.37031090       7.72813781  F        0       0.00000000       0.00000000       0.00000000       0.00000000       0.00000000       0.00000000
Ga      -4.38819668      10.04807501       9.99924406  F        0       0.00000000       0.00000000       0.00000000       0.00000000       0.00000000       0.00000000
Ga       1.71298374       2.17180514      13.52555369  T        1       0.00571800      -0.00912700       0.00248800       0.00571800      -0.00912700       0.00248800
Ga      -1.33062670      11.18362796       7.16036161  F        0       0.00000000       0.00000000       0.00000000       0.00000000       0.00000000       0.00000000
Ga       1.72694280       0.39587557       9.43146690  F        0       0.00000000       0.00000000       0.00000000       0.00000000       0.00000000       0.00000000
Ga      -1.33940728      12.85257577      11.09413942  T        1       0.00369400       0.01266100      -0.01500600       0.00369400       0.01266100      -0.01500600
Ga       4.78451278       1.53142845       6.59258541  F        0       0.00000000       0.00000000       0.00000000       0.00000000       0.00000000       0.00000000
Ir      -2.85941146      13.17084562       6.30869707  F        0       0.00000000       0.00000000       0.00000000       0.00000000       0.00000000       0.00000000
Ir       0.19815805      12.03529274       9.14757951  F        0       0.00000000       0.00000000       0.00000000       0.00000000       0.00000000       0.00000000
Ir      -2.83719887      10.89660804      11.95475882  T        1       0.01345300       0.00880400       0.00008000       0.01345300       0.00880400       0.00008000
Ir       0.17117923      10.90653360      11.95114514  T        1      -0.01102300       0.00800300       0.00349200      -0.01102300       0.00800300       0.00349200
Ir       0.19815805      13.17084562       6.30869707  F        0       0.00000000       0.00000000       0.00000000       0.00000000       0.00000000       0.00000000
Ir      -2.85941146      12.03529274       9.14757951  F        0       0.00000000       0.00000000       0.00000000       0.00000000       0.00000000       0.00000000
Ir       0.15164554       0.19202740      14.01182647  T        1       0.00660500      -0.00775100      -0.00188800       0.00660500      -0.00775100      -0.00188800
Ir       0.19815805       2.38309347       8.57980236  F        0       0.00000000       0.00000000       0.00000000       0.00000000       0.00000000       0.00000000
Ir       3.25572803       1.24754011      11.41868480  F        0       0.00000000       0.00000000       0.00000000       0.00000000       0.00000000       0.00000000