36
Lattice="13.158207893371582 -2.1086906728591733e-17 -0.1721876561641693 -0.18570350110530853 8.383971214294434 0.9866071343421936 -0.0 3.788417537032955e-15 30.934778213500977" Properties=species:S:1:pos:R:3:move_mask:L:1:tags:I:1:DFT_forces:R:3:forces:R:3:magmoms:R:1 DFT_energy=-138.22163402 energy=-138.22163402 dipole="_JSON [[0.0, 0.0, 0.0]]" magmom=0.0 free_energy=-138.24113135 pbc="T T T"
Pt       8.97505825       5.81462736      14.19177325  T        1       0.00930100       0.01274300       0.00496600       0.00930100       0.01274300       0.00496600       0.00000000
Pt      11.50424164       2.91158049       8.75003743  F        0       0.00000000       0.00000000       0.00000000       0.38705400       0.19804400       0.25828500       0.00000000
Pt      10.42170423       0.14478908      10.98050255  T        1      -0.00629700      -0.02529700       0.02173300      -0.00629700      -0.02529700       0.02173300       0.00000000
Rb       0.04044099       8.18015663      10.01506296  F        0       0.00000000       0.00000000       0.00000000      -0.22629400      -0.11646300       0.30653700       0.00000000
Rb      12.08861814       5.14109131      12.60907891  T        1       0.00997700      -0.01073100       0.00280600       0.00997700      -0.01073100       0.00280600       0.00000000
Rb       1.26076048       2.59084265       6.76507768  F        0       0.00000000       0.00000000       0.00000000       0.01262000       0.29369900       0.24135700       0.00000000
Rb       8.60091888       3.10950793      11.11051811  T        1      -0.00454200       0.00477800       0.00384600      -0.00454200       0.00477800       0.00384600       0.00000000
Rb       0.60697554       0.22358901      13.84913310  T        1      -0.01285000       0.00557500       0.00446900      -0.01285000       0.00557500       0.00446900       0.00000000
Rb       9.62413068       6.02697511       8.64380628  F        0       0.00000000       0.00000000       0.00000000       0.26668400      -0.01427700       0.05296400       0.00000000
S        8.87210358       6.52545474      12.00901014  F        0       0.00000000       0.00000000       0.00000000       0.25988000       0.53916500      -0.09608600       0.00000000
S        1.68865096       3.74208753      15.08540548  T        1      -0.03461100      -0.00457500       0.01204200      -0.03461100      -0.00457500       0.01204200       0.00000000
S       10.09242326       0.93614070       8.75902486  F        0       0.00000000       0.00000000       0.00000000       0.05177000       0.23906000      -0.54175100       0.00000000
S       12.91605967       4.88702003       8.74104905  F        0       0.00000000       0.00000000       0.00000000      -0.34915700      -0.54738000      -0.36301800       0.00000000
S       11.88144368       2.09236280      11.00442815  F        0       0.00000000       0.00000000       0.00000000      -0.35016100      -0.55689200       0.11467800       0.00000000
S       10.28443458       7.75891701      14.22349929  T        1       0.00572400       0.01012000      -0.02036900       0.00572400       0.01012000      -0.02036900       0.00000000
Pt       2.55169953       5.68160790      14.22961553  T        1       0.02305800       0.01848400      -0.00677300       0.02305800       0.01848400      -0.00677300       0.00000000
Pt       4.92513722       2.91158049       8.83613118  F        0       0.00000000       0.00000000       0.00000000       0.39640900       0.17563700       0.28282100       0.00000000
Pt       3.83690106       0.14109339      11.07501261  T        1      -0.01109000      -0.02815300       0.01117900      -0.01109000      -0.02815300       0.01117900       0.00000000
Rb       6.61954446       8.18015663       9.92896905  F        0       0.00000000       0.00000000       0.00000000      -0.20942800      -0.07681600       0.31170600       0.00000000
Rb       5.58001171       5.21692415      12.49483500  T        1       0.00224400      -0.00147100      -0.00030600       0.00224400      -0.00147100      -0.00030600       0.00000000
Rb       7.83986443       2.59084265       6.67898378  F        0       0.00000000       0.00000000       0.00000000       0.02590800       0.29186600       0.24404900       0.00000000
Rb       2.01027306       3.14101588      11.17969146  T        1      -0.00698000       0.00006800       0.00061900      -0.00698000       0.00006800       0.00061900       0.00000000
Rb       7.06973807       0.57030371      14.01869512  T        1       0.00083500      -0.00064200      -0.00008700       0.00083500      -0.00064200      -0.00008700       0.00000000
Rb       3.04502625       6.02697511       8.72990003  F        0       0.00000000       0.00000000       0.00000000       0.24463800      -0.00587500       0.03441700       0.00000000
S        2.29299970       6.52545474      12.09510389  F        0       0.00000000       0.00000000       0.00000000       0.15913600       0.55117700      -0.10507800       0.00000000
S        8.19257262       3.96018421      15.21093903  T        1      -0.01121100      -0.01485600      -0.00437600      -0.01121100      -0.01485600      -0.00437600       0.00000000
S        3.51331871       0.93614070       8.84511861  F        0       0.00000000       0.00000000       0.00000000       0.04875400       0.22980600      -0.45638700       0.00000000
S        6.33695572       4.88702003       8.82714280  F        0       0.00000000       0.00000000       0.00000000      -0.33792300      -0.54063600      -0.36452500       0.00000000
S        5.30233925       2.09236280      11.09052190  F        0       0.00000000       0.00000000       0.00000000      -0.41067000      -0.61943000       0.03460100       0.00000000
S        3.75835263       7.71160516      14.31264904  T        1      -0.00076000      -0.01337800      -0.01175700      -0.00076000      -0.01337800      -0.01175700       0.00000000
C        6.49701757       4.19062938      15.88619312  T        2       0.02242700       0.00237600       0.02084900       0.02242700       0.00237600       0.02084900       0.00000000
H        6.17302961       5.24078836      15.78297207  T        2      -0.00153900      -0.01151900       0.01965200      -0.00153900      -0.01151900       0.01965200       0.00000000
H        6.52793021       3.92236798      16.96047979  T        2      -0.00322800      -0.00877100       0.00625900      -0.00322800      -0.00877100       0.00625900       0.00000000
H        4.67735167       3.58903766      15.36922907  T        2       0.01059400       0.02091300       0.01026200       0.01059400       0.02091300       0.01026200       0.00000000
O        5.59727170       3.30767175      15.16942532  T        2       0.00719400       0.00906900      -0.01027100       0.00719400       0.00906900      -0.01027100       0.00000000
H        2.62145745       2.79382824      14.78618030  T        2       0.03253700      -0.00541700      -0.01931500       0.03253700      -0.00541700      -0.01931500       0.00000000
36
Lattice="13.158207893371582 -2.1086906728591733e-17 -0.1721876561641693 -0.18570350110530853 8.383971214294434 0.9866071343421936 -0.0 3.788417537032955e-15 30.934778213500977" Properties=species:S:1:pos:R:3:move_mask:L:1:tags:I:1:DFT_forces:R:3:forces:R:3 DFT_energy=-138.12485281 energy=-138.12485281 pbc="T T T"
Pt       9.16725692       5.78576993      14.17048008  T        1      -0.00552300      -0.04932800      -0.01447400      -0.00552300      -0.04932800      -0.01447400
Pt      11.50424164       2.91158049       8.75003743  F        0       0.00000000       0.00000000       0.00000000       0.00000000       0.00000000       0.00000000
Pt      10.41257006       0.16057261      10.98077324  T        1       0.00015700       0.00474400       0.00028200       0.00015700       0.00474400       0.00028200
Rb       0.04044099       8.18015663      10.01506296  F        0       0.00000000       0.00000000       0.00000000       0.00000000       0.00000000       0.00000000
Rb      12.14444739       5.20160853      12.51749801  T        1       0.01051400      -0.00843100      -0.00551000       0.01051400      -0.00843100      -0.00551000
Rb       1.26076048       2.59084265       6.76507768  F        0       0.00000000       0.00000000       0.00000000       0.00000000       0.00000000       0.00000000
Rb       8.57846888       3.12559048      11.12168348  T        1       0.01099500       0.00277400      -0.00732100       0.01099500       0.00277400      -0.00732100
Rb       0.52596327       0.36051987      14.03187985  T        1       0.00359500      -0.01521200      -0.03597700       0.00359500      -0.01521200      -0.03597700
Rb       9.62413068       6.02697511       8.64380628  F        0       0.00000000       0.00000000       0.00000000       0.00000000       0.00000000       0.00000000
S        8.87210358       6.52545474      12.00901014  F        0       0.00000000       0.00000000       0.00000000       0.00000000       0.00000000       0.00000000
S        1.56834560       3.88994187      15.23454104  T        1       0.01523500      -0.00415700      -0.00097300       0.01523500      -0.00415700      -0.00097300
S       10.09242326       0.93614070       8.75902486  F        0       0.00000000       0.00000000       0.00000000       0.00000000       0.00000000       0.00000000
S       12.91605967       4.88702003       8.74104905  F        0       0.00000000       0.00000000       0.00000000       0.00000000       0.00000000       0.00000000
S       11.88144368       2.09236280      11.00442815  F        0       0.00000000       0.00000000       0.00000000       0.00000000       0.00000000       0.00000000
S       10.29899274       7.83019285      14.22913112  T        1      -0.00155900      -0.05880000      -0.01982900      -0.00155900      -0.05880000      -0.01982900
Pt       2.42302442       5.78655671      14.28018517  T        1       0.03221400      -0.00221000       0.01365000       0.03221400      -0.00221000       0.01365000
Pt       4.92513722       2.91158049       8.83613118  F        0       0.00000000       0.00000000       0.00000000       0.00000000       0.00000000       0.00000000
Pt       3.82527287       0.14914694      11.07749940  T        1       0.00489300      -0.00199200       0.00220300       0.00489300      -0.00199200       0.00220300
Rb       6.61954446       8.18015663       9.92896905  F        0       0.00000000       0.00000000       0.00000000       0.00000000       0.00000000       0.00000000
Rb       5.54519437       5.07327995      12.92068832  T        1       0.01477800       0.06381800      -0.10656400       0.01477800       0.06381800      -0.10656400
Rb       7.83986443       2.59084265       6.67898378  F        0       0.00000000       0.00000000       0.00000000       0.00000000       0.00000000       0.00000000
Rb       2.02160845       3.12972553      11.20156335  T        1      -0.00289900       0.00026300      -0.01109900      -0.00289900       0.00026300      -0.01109900
Rb       7.06299026       0.48825991      14.06316797  T        1       0.07547200      -0.02687700      -0.08659200       0.07547200      -0.02687700      -0.08659200
Rb       3.04502625       6.02697511       8.72990003  F        0       0.00000000       0.00000000       0.00000000       0.00000000       0.00000000       0.00000000
S        2.29299970       6.52545474      12.09510389  F        0       0.00000000       0.00000000       0.00000000       0.00000000       0.00000000       0.00000000
S        8.61672930       3.76697967      15.03576189  T        1      -0.01817000      -0.00623400       0.06018000      -0.01817000      -0.00623400       0.06018000
S        3.51331871       0.93614070       8.84511861  F        0       0.00000000       0.00000000       0.00000000       0.00000000       0.00000000       0.00000000
S        6.33695572       4.88702003       8.82714280  F        0       0.00000000       0.00000000       0.00000000       0.00000000       0.00000000       0.00000000
S        5.30233925       2.09236280      11.09052190  F        0       0.00000000       0.00000000       0.00000000       0.00000000       0.00000000       0.00000000
S        3.66832053       7.78819598      14.33460736  T        1       0.02917200      -0.00151900       0.00086500       0.02917200      -0.00151900       0.00086500
C        7.15836524       3.94597271      16.12043127  T        2      -0.07701300      -0.02953300       0.02265800      -0.07701300      -0.02953300       0.02265800
H        6.77298031       4.97945645      16.07719445  T        2      -0.03899100      -0.00759700       0.02874400      -0.03899100      -0.00759700       0.02874400
H        7.49598808       3.72891164      17.15284990  T        2      -0.11560900      -0.06466300       0.01540800      -0.11560900      -0.06466300       0.01540800
H        5.34157495       3.11885021      16.27264746  T        2       0.03631100       0.04786100       0.00657000       0.03631100       0.04786100       0.00657000
O        6.12506909       3.00074460      15.69817512  T        2       0.05515500      -0.01349000       0.02691400       0.05515500      -0.01349000       0.02691400
H        2.62335844       3.03707130      15.10227685  T        2      -0.00377400      -0.02612400      -0.01971600      -0.00377400      -0.02612400      -0.01971600
36
Lattice="13.158207893371582 -2.1086906728591733e-17 -0.1721876561641693 -0.18570350110530853 8.383971214294434 0.9866071343421936 -0.0 3.788417537032955e-15 30.934778213500977" Properties=species:S:1:pos:R:3:move_mask:L:1:tags:I:1:DFT_forces:R:3:forces:R:3 DFT_energy=-137.09067111 energy=-137.09067111 pbc="T T T"
Pt       9.20102754       5.94129302      14.23259937  T        1       0.09307700      -0.06770000      -0.09511300       0.09307700      -0.06770000      -0.09511300
Pt      11.50424164       2.91158049       8.75003743  F        0       0.00000000       0.00000000       0.00000000       0.00000000       0.00000000       0.00000000
Pt      10.41520157       0.16662744      10.98590838  T        1      -0.00855600       0.02353300      -0.02024500      -0.00855600       0.02353300      -0.02024500
Rb       0.04044099       8.18015663      10.01506296  F        0       0.00000000       0.00000000       0.00000000       0.00000000       0.00000000       0.00000000
Rb      12.10807012       5.22636226      12.53867937  T        1       0.01937000       0.00066500      -0.03035500       0.01937000       0.00066500      -0.03035500
Rb       1.26076048       2.59084265       6.76507768  F        0       0.00000000       0.00000000       0.00000000       0.00000000       0.00000000       0.00000000
Rb       8.54734675       3.11512365      11.14334378  T        1       0.00966500      -0.00256200      -0.01801000       0.00966500      -0.00256200      -0.01801000
Rb       0.50993494       0.40300178      14.13753771  T        1      -0.01748100      -0.01208000      -0.04802000      -0.01748100      -0.01208000      -0.04802000
Rb       9.62413068       6.02697511       8.64380628  F        0       0.00000000       0.00000000       0.00000000       0.00000000       0.00000000       0.00000000
S        8.87210358       6.52545474      12.00901014  F        0       0.00000000       0.00000000       0.00000000       0.00000000       0.00000000       0.00000000
S        1.52658514       3.89415912      15.24507458  T        1       0.01199000       0.00147900       0.02024000       0.01199000       0.00147900       0.02024000
S       10.09242326       0.93614070       8.75902486  F        0       0.00000000       0.00000000       0.00000000       0.00000000       0.00000000       0.00000000
S       12.91605967       4.88702003       8.74104905  F        0       0.00000000       0.00000000       0.00000000       0.00000000       0.00000000       0.00000000
S       11.88144368       2.09236280      11.00442815  F        0       0.00000000       0.00000000       0.00000000       0.00000000       0.00000000       0.00000000
S       10.28939074       7.99114337      14.27352409  T        1      -0.04217400      -0.03054300      -0.00712400      -0.04217400      -0.03054300      -0.00712400
Pt       2.33792128       5.79730293      14.27175507  T        1       0.04886900       0.00267500       0.05833100       0.04886900       0.00267500       0.05833100
Pt       4.92513722       2.91158049       8.83613118  F        0       0.00000000       0.00000000       0.00000000       0.00000000       0.00000000       0.00000000
Pt       3.81140902       0.15641283      11.08217200  T        1      -0.01023300      -0.01027700      -0.00564900      -0.01023300      -0.01027700      -0.00564900
Rb       6.61954446       8.18015663       9.92896905  F        0       0.00000000       0.00000000       0.00000000       0.00000000       0.00000000       0.00000000
Rb       5.49984303       4.86387209      13.27949567  T        1       0.00496100       0.14119300      -0.20877100       0.00496100       0.14119300      -0.20877100
Rb       7.83986443       2.59084265       6.67898378  F        0       0.00000000       0.00000000       0.00000000       0.00000000       0.00000000       0.00000000
Rb       2.02595875       3.12993548      11.23556762  T        1      -0.01125800       0.00180000      -0.03365500      -0.01125800       0.00180000      -0.03365500
Rb       6.84272617       0.56457535      14.32961549  T        1       0.13250400      -0.11307600      -0.18480100       0.13250400      -0.11307600      -0.18480100
Rb       3.04502625       6.02697511       8.72990003  F        0       0.00000000       0.00000000       0.00000000       0.00000000       0.00000000       0.00000000
S        2.29299970       6.52545474      12.09510389  F        0       0.00000000       0.00000000       0.00000000       0.00000000       0.00000000       0.00000000
S        8.68279957       3.80168741      14.84444574  T        1      -0.15321700       0.01038000       0.13679000      -0.15321700       0.01038000       0.13679000
S        3.51331871       0.93614070       8.84511861  F        0       0.00000000       0.00000000       0.00000000       0.00000000       0.00000000       0.00000000
S        6.33695572       4.88702003       8.82714280  F        0       0.00000000       0.00000000       0.00000000       0.00000000       0.00000000       0.00000000
S        5.30233925       2.09236280      11.09052190  F        0       0.00000000       0.00000000       0.00000000       0.00000000       0.00000000       0.00000000
S        3.57529655       7.79120433      14.33810786  T        1       0.07259100       0.04084500       0.03290100       0.07259100       0.04084500       0.03290100
C        7.44606210       4.05977440      16.05263830  T        2      -0.88038500      -0.61005000      -0.09109200      -0.88038500      -0.61005000      -0.09109200
H        6.88858555       4.99225051      15.99379257  T        2       0.02610100       0.25251200       0.07856700       0.02610100       0.25251200       0.07856700
H        7.82528700       3.85050439      17.07205272  T        2      -0.55344900      -0.36881000      -0.09832500      -0.55344900      -0.36881000      -0.09832500
H        5.25568022       3.01479813      16.29161082  T        2       0.47495900       0.28229600       0.05786900       0.47495900       0.28229600       0.05786900
O        5.98279268       2.97839366      15.62617376  T        2       0.87376600       0.32632400       0.36056900       0.87376600       0.32632400       0.36056900
H        2.63809465       3.10990291      15.16578378  T        2      -0.02872100      -0.05107400      -0.00677300      -0.02872100      -0.05107400      -0.00677300
36
Lattice="13.158207893371582 -2.1086906728591733e-17 -0.1721876561641693 -0.18570350110530853 8.383971214294434 0.9866071343421936 -0.0 3.788417537032955e-15 30.934778213500977" Properties=species:S:1:pos:R:3:move_mask:L:1:tags:I:1:DFT_forces:R:3:forces:R:3 DFT_energy=-136.61876311 energy=-136.61876311 pbc="T T T"
Pt       9.17107912       5.96460450      14.26445121  T        1       0.00131900      -0.00181000       0.00188200       0.00131900      -0.00181000       0.00188200
Pt      11.50424164       2.91158049       8.75003743  F        0       0.00000000       0.00000000       0.00000000       0.00000000       0.00000000       0.00000000
Pt      10.41878208       0.15802373      10.99226836  T        1      -0.00117600       0.00014700      -0.00407400      -0.00117600       0.00014700      -0.00407400
Rb       0.04044099       8.18015663      10.01506296  F        0       0.00000000       0.00000000       0.00000000       0.00000000       0.00000000       0.00000000
Rb      12.10141575       5.22688996      12.54964602  T        1      -0.00037300       0.00074400       0.00089500      -0.00037300       0.00074400       0.00089500
Rb       1.26076048       2.59084265       6.76507768  F        0       0.00000000       0.00000000       0.00000000       0.00000000       0.00000000       0.00000000
Rb       8.54342292       3.11612804      11.14924713  T        1      -0.00051600      -0.00013800       0.00086700      -0.00051600      -0.00013800       0.00086700
Rb       0.51606110       0.40668511      14.15433572  T        1       0.00052900      -0.00043900       0.00185500       0.00052900      -0.00043900       0.00185500
Rb       9.62413068       6.02697511       8.64380628  F        0       0.00000000       0.00000000       0.00000000       0.00000000       0.00000000       0.00000000
S        8.87210358       6.52545474      12.00901014  F        0       0.00000000       0.00000000       0.00000000       0.00000000       0.00000000       0.00000000
S        1.52342478       3.89481547      15.23854656  T        1      -0.00219200      -0.00017500       0.00307800      -0.00219200      -0.00017500       0.00307800
S       10.09242326       0.93614070       8.75902486  F        0       0.00000000       0.00000000       0.00000000       0.00000000       0.00000000       0.00000000
S       12.91605967       4.88702003       8.74104905  F        0       0.00000000       0.00000000       0.00000000       0.00000000       0.00000000       0.00000000
S       11.88144368       2.09236280      11.00442815  F        0       0.00000000       0.00000000       0.00000000       0.00000000       0.00000000       0.00000000
S       10.30368188       7.99962003      14.27755590  T        1       0.00189300      -0.00111100      -0.00026000       0.00189300      -0.00111100      -0.00026000
Pt       2.32268986       5.79459442      14.25348456  T        1       0.00080500       0.00020400       0.00081000       0.00080500       0.00020400       0.00081000
Pt       4.92513722       2.91158049       8.83613118  F        0       0.00000000       0.00000000       0.00000000       0.00000000       0.00000000       0.00000000
Pt       3.81400974       0.16015115      11.08394821  T        1       0.00062100       0.00158200       0.00070100       0.00062100       0.00158200       0.00070100
Rb       6.61954446       8.18015663       9.92896905  F        0       0.00000000       0.00000000       0.00000000       0.00000000       0.00000000       0.00000000
Rb       5.49775939       4.81622912      13.35034249  T        1       0.00082200      -0.00255400       0.00479200       0.00082200      -0.00255400       0.00479200
Rb       7.83986443       2.59084265       6.67898378  F        0       0.00000000       0.00000000       0.00000000       0.00000000       0.00000000       0.00000000
Rb       2.03012059       3.12926618      11.24695901  T        1       0.00002900       0.00033800       0.00070300       0.00002900       0.00033800       0.00070300
Rb       6.79957755       0.60080262      14.39236437  T        1       0.00438200      -0.00323400       0.00240200       0.00438200      -0.00323400       0.00240200
Rb       3.04502625       6.02697511       8.72990003  F        0       0.00000000       0.00000000       0.00000000       0.00000000       0.00000000       0.00000000
S        2.29299970       6.52545474      12.09510389  F        0       0.00000000       0.00000000       0.00000000       0.00000000       0.00000000       0.00000000
S        8.73606497       3.79827301      14.79611728  T        1       0.00889800      -0.00694100      -0.00743800       0.00889800      -0.00694100      -0.00743800
S        3.51331871       0.93614070       8.84511861  F        0       0.00000000       0.00000000       0.00000000       0.00000000       0.00000000       0.00000000
S        6.33695572       4.88702003       8.82714280  F        0       0.00000000       0.00000000       0.00000000       0.00000000       0.00000000       0.00000000
S        5.30233925       2.09236280      11.09052190  F        0       0.00000000       0.00000000       0.00000000       0.00000000       0.00000000       0.00000000
S        3.55054255       7.77882100      14.32546918  T        1       0.00143100       0.00210500      -0.00167400       0.00143100       0.00210500      -0.00167400
C        7.74961022       4.26529627      16.08518621  T        2       0.01173200       0.00298600       0.00338600       0.01173200       0.00298600       0.00338600
H        6.88004199       4.90682198      15.97022002  T        2      -0.00291300      -0.00698500       0.00874100      -0.00291300      -0.00698500       0.00874100
H        8.01622358       3.97412998      17.10822014  T        2       0.02064200      -0.00118500       0.00631200       0.02064200      -0.00118500       0.00631200
H        5.09110486       2.91759580      16.27533139  T        2       0.00048300      -0.00559100      -0.00117300       0.00048300      -0.00559100      -0.00117300
O        5.68422788       2.86319574      15.50369290  T        2      -0.01206100      -0.00309200       0.00185900      -0.01206100      -0.00309200       0.00185900
H        2.64884253       3.12752653      15.16909949  T        2       0.00262000      -0.00352900       0.00406900       0.00262000      -0.00352900       0.00406900
36
Lattice="13.158207893371582 -2.1086906728591733e-17 -0.1721876561641693 -0.18570350110530853 8.383971214294434 0.9866071343421936 -0.0 3.788417537032955e-15 30.934778213500977" Properties=species:S:1:pos:R:3:move_mask:L:1:tags:I:1:DFT_forces:R:3:forces:R:3 DFT_energy=-136.77629253 energy=-136.77629253 pbc="T T T"
Pt       9.10510180       5.92696957      14.31002828  T        1      -0.10943400      -0.06392400       0.06459000      -0.10943400      -0.06392400       0.06459000
Pt      11.50424164       2.91158049       8.75003743  F        0       0.00000000       0.00000000       0.00000000       0.00000000       0.00000000       0.00000000
Pt      10.41245134       0.15539760      11.00736776  T        1      -0.01327300      -0.00047000       0.02946400      -0.01327300      -0.00047000       0.02946400
Rb       0.04044099       8.18015663      10.01506296  F        0       0.00000000       0.00000000       0.00000000       0.00000000       0.00000000       0.00000000
Rb      12.08538324       5.22792386      12.57235476  T        1      -0.02483000       0.00026700       0.03837900      -0.02483000       0.00026700       0.03837900
Rb       1.26076048       2.59084265       6.76507768  F        0       0.00000000       0.00000000       0.00000000       0.00000000       0.00000000       0.00000000
Rb       8.53909683       3.12131929      11.16514972  T        1      -0.00636300       0.00766700       0.02520100      -0.00636300       0.00766700       0.02520100
Rb       0.51430016       0.40474593      14.16893693  T        1      -0.00544000      -0.00499700       0.02662100      -0.00544000      -0.00499700       0.02662100
Rb       9.62413068       6.02697511       8.64380628  F        0       0.00000000       0.00000000       0.00000000       0.00000000       0.00000000       0.00000000
S        8.87210358       6.52545474      12.00901014  F        0       0.00000000       0.00000000       0.00000000       0.00000000       0.00000000       0.00000000
S        1.52435600       3.88875499      15.23510084  T        1      -0.00068900      -0.01006200      -0.00213700      -0.00068900      -0.01006200      -0.00213700
S       10.09242326       0.93614070       8.75902486  F        0       0.00000000       0.00000000       0.00000000       0.00000000       0.00000000       0.00000000
S       12.91605967       4.88702003       8.74104905  F        0       0.00000000       0.00000000       0.00000000       0.00000000       0.00000000       0.00000000
S       11.88144368       2.09236280      11.00442815  F        0       0.00000000       0.00000000       0.00000000       0.00000000       0.00000000       0.00000000
S       10.28457787       7.95348234      14.27683419  T        1      -0.02130900      -0.07109900       0.00456500      -0.02130900      -0.07109900       0.00456500
Pt       2.31162581       5.79072761      14.24725856  T        1      -0.02056700      -0.00621500      -0.00545400      -0.02056700      -0.00621500      -0.00545400
Pt       4.92513722       2.91158049       8.83613118  F        0       0.00000000       0.00000000       0.00000000       0.00000000       0.00000000       0.00000000
Pt       3.81658599       0.16067389      11.08901970  T        1       0.00507900       0.00503500       0.00937900       0.00507900       0.00503500       0.00937900
Rb       6.61954446       8.18015663       9.92896905  F        0       0.00000000       0.00000000       0.00000000       0.00000000       0.00000000       0.00000000
Rb       5.49336429       4.79847636      13.38428919  T        1      -0.00486800      -0.03214700       0.06172700      -0.00486800      -0.03214700       0.06172700