68
Lattice="13.167581558227539 -9.874104351638831e-32 -8.062818215849815e-16 8.739552012685086e-16 14.272771835327148 -8.739552012685086e-16 -0.0 4.7629234371348705e-15 38.89221954345703" Properties=species:S:1:pos:R:3:move_mask:L:1:tags:I:1:DFT_forces:R:3:forces:R:3:magmoms:R:1 DFT_energy=-425.7277722 energy=-425.7277722 dipole="_JSON [[0.0, 0.0, 0.0]]" magmom=0.0 free_energy=-425.74866532 pbc="T T T"
Y        1.04795158       8.97912291      17.94707729  T        1      -0.00443600      -0.00305000       0.00387700      -0.00443600      -0.00305000       0.00387700       0.00000000
Y       10.32301224      12.21383175      13.01373167  F        0       0.00000000       0.00000000       0.00000000      -0.14014000      -0.12734600      -0.22447500       0.00000000
Y       12.18818482      12.63389909      17.91554282  T        1       0.01106400       0.01389100      -0.00257700       0.01106400       0.01389100      -0.00257700       0.00000000
Y        8.76697541       1.50925311      13.01373167  F        0       0.00000000       0.00000000       0.00000000       0.10965200      -0.09260900      -0.29696300       0.00000000
Y       10.00404513      10.11848423       9.98236436  F        0       0.00000000       0.00000000       0.00000000       0.01871600      -0.06161600       0.46715000       0.00000000
Y        0.12835896      11.12187847      11.18356962  F        0       0.00000000       0.00000000       0.00000000      -0.04451500       0.03292800       0.09483200       0.00000000
Y        9.15040921      13.71014794      16.03858262  T        1      -0.00263500       0.00266400      -0.00398200      -0.00263500       0.00266400      -0.00398200       0.00000000
Y       12.37783778       0.41729983      14.84389181  F        0       0.00000000       0.00000000       0.00000000      -0.09386200       0.12821500       0.13439200       0.00000000
Y       12.37783778       0.41729983      11.18356962  F        0       0.00000000       0.00000000       0.00000000      -0.00018200       0.09213100       0.05279900       0.00000000
Y        9.08594239      13.68667707       9.98236436  F        0       0.00000000       0.00000000       0.00000000      -0.02745000      -0.06264000       0.43297800       0.00000000
Y        0.12835896      11.12187847      14.84389181  F        0       0.00000000       0.00000000       0.00000000      -0.16999100      -0.16260500       0.34874800       0.00000000
Y        9.84694296      10.11844653      16.30973498  T        1       0.00854200       0.00452400       0.01120500       0.00854200       0.00452400       0.01120500       0.00000000
Pt       7.61356454      11.78897696      17.41438316  T        1       0.00915600       0.00282500      -0.02154800       0.00915600       0.00282500      -0.02154800       0.00000000
Pt      11.51266849       9.62984279      13.01373167  F        0       0.00000000       0.00000000       0.00000000       0.11799200       0.00902000      -0.38732900       0.00000000
Pt      11.26208877       0.89837437      17.42893096  T        1      -0.00061400       0.01160900      -0.00612500      -0.00061400       0.01160900      -0.00612500       0.00000000
Pt       0.99352849      13.19803580      13.01373167  F        0       0.00000000       0.00000000       0.00000000      -0.02811200      -0.04044000      -0.22499000       0.00000000
Y        0.78355777       1.84423839      17.84436362  T        1       0.00068400      -0.00947100       0.00732100       0.00068400      -0.00947100       0.00732100       0.00000000
Y       10.32301224       5.07744559      13.01373167  F        0       0.00000000       0.00000000       0.00000000      -0.17265000      -0.04649900      -0.28251900       0.00000000
Y       12.11896771       5.43768135      17.88722904  T        1      -0.02332700       0.00255000      -0.00433100      -0.02332700       0.00255000      -0.00433100       0.00000000
Y        8.76697541       8.64563903      13.01373167  F        0       0.00000000       0.00000000       0.00000000       0.21604800      -0.04275100      -0.23236400       0.00000000
Y       10.00404513       2.98209819       9.98236436  F        0       0.00000000       0.00000000       0.00000000       0.02791400      -0.06846100       0.43522200       0.00000000
Y        0.12835896       3.98549232      11.18356962  F        0       0.00000000       0.00000000       0.00000000      -0.01219800       0.07555100       0.07578900       0.00000000
Y        9.07210587       6.60104264      16.12928253  T        1       0.02611100      -0.00431500       0.00241200       0.02611100      -0.00431500       0.00241200       0.00000000
Y       12.37783778       7.55368575      14.84389181  F        0       0.00000000       0.00000000       0.00000000       0.05917900       0.12994600       0.18936500       0.00000000
Y       12.37783778       7.55368575      11.18356962  F        0       0.00000000       0.00000000       0.00000000      -0.02217800       0.11005400       0.12258000       0.00000000
Y        9.08594239       6.55029162       9.98236436  F        0       0.00000000       0.00000000       0.00000000      -0.03053800      -0.07163600       0.42399000       0.00000000
Y        0.12835896       3.98549232      14.84389181  F        0       0.00000000       0.00000000       0.00000000       0.12857500      -0.13556500       0.19660800       0.00000000
Y       10.01128164       2.99815722      16.03040796  T        1      -0.00706400      -0.00769300      -0.00759700      -0.00706400      -0.00769300      -0.00759700       0.00000000
Pt       7.90200776       4.34737438      17.39756363  T        1      -0.00128900      -0.00641400       0.00237300      -0.00128900      -0.00641400       0.00237300       0.00000000
Pt      11.51266849       2.49345693      13.01373167  F        0       0.00000000       0.00000000       0.00000000       0.06203900       0.02533100      -0.25132800       0.00000000
Pt      11.51256956       8.02597570      17.49021570  T        1      -0.03030600       0.01525100      -0.00886700      -0.03030600       0.01525100      -0.00886700       0.00000000
Pt       0.99352849       6.06164989      13.01373167  F        0       0.00000000       0.00000000       0.00000000      -0.09253500      -0.02795900      -0.24049000       0.00000000
Y        7.12610397       8.96570477      18.10188920  T        1      -0.01969000      -0.00399500       0.00726800      -0.01969000      -0.00399500       0.00726800       0.00000000
Y        3.73922170      12.21383175      13.01373167  F        0       0.00000000       0.00000000       0.00000000      -0.00435300       0.09836200      -0.75024000       0.00000000
Y        4.90576263      12.48602261      17.88402661  T        1      -0.00798800       0.00427500      -0.00129000      -0.00798800       0.00427500      -0.00129000       0.00000000
Y        2.18318475       1.50925311      13.01373167  F        0       0.00000000       0.00000000       0.00000000       0.05210900       0.10377900      -0.53753500       0.00000000
Y        3.42025483      10.11848423       9.98236436  F        0       0.00000000       0.00000000       0.00000000       0.03186500      -0.05028800       0.42221700       0.00000000
Y        6.71214974      11.12187847      11.18356962  F        0       0.00000000       0.00000000       0.00000000      -0.00843300       0.11861800       0.03006300       0.00000000
Y        2.44561912      13.75813348      15.82432081  T        1       0.01163200      -0.02715800      -0.00028200       0.01163200      -0.02715800      -0.00028200       0.00000000
Y        5.79404748       0.41729983      14.84389181  F        0       0.00000000       0.00000000       0.00000000      -0.00754600      -0.16817000       0.25967500       0.00000000
Y        5.79404748       0.41729983      11.18356962  F        0       0.00000000       0.00000000       0.00000000      -0.01191500       0.08108000       0.06381300       0.00000000
Y        2.50215161      13.68667707       9.98236436  F        0       0.00000000       0.00000000       0.00000000      -0.01555100      -0.07930200       0.42767500       0.00000000
Y        6.71214974      11.12187847      14.84389181  F        0       0.00000000       0.00000000       0.00000000      -0.03541500       0.17859300       0.25789200       0.00000000
Y        3.43252129      10.18408176      15.74282670  T        1      -0.00023500      -0.03087000      -0.00233000      -0.00023500      -0.03087000      -0.00233000       0.00000000
Pt       1.63017965      11.63147416      17.40347040  T        1       0.01329100       0.03411400      -0.00021100       0.01329100       0.03411400      -0.00021100       0.00000000
Pt       4.92887795       9.62984279      13.01373167  F        0       0.00000000       0.00000000       0.00000000       0.01471800      -0.01696800      -0.32019300       0.00000000
Pt       4.37954167       0.87587343      17.41532404  T        1      -0.02439600       0.00167500       0.00251000      -0.02439600       0.00167500       0.00251000       0.00000000
Pt       7.57731927      13.19803580      13.01373167  F        0       0.00000000       0.00000000       0.00000000      -0.04536400      -0.01596300      -0.28824600       0.00000000
Y        7.03664979       1.76379723      17.89067084  T        1      -0.01502200       0.00680400      -0.00335300      -0.01502200       0.00680400      -0.00335300       0.00000000
Y        3.73922170       5.07744559      13.01373167  F        0       0.00000000       0.00000000       0.00000000      -0.06537200      -0.00737300      -0.62246900       0.00000000
Y        5.49113591       5.75050703      18.11111117  T        1      -0.00014600       0.00549300      -0.00216100      -0.00014600       0.00549300      -0.00216100       0.00000000
Y        2.18318475       8.64563903      13.01373167  F        0       0.00000000       0.00000000       0.00000000       0.00103800      -0.10308400      -0.69702500       0.00000000
Y        3.42025483       2.98209819       9.98236436  F        0       0.00000000       0.00000000       0.00000000       0.03078900      -0.06472400       0.42846400       0.00000000
Y        6.71214974       3.98549232      11.18356962  F        0       0.00000000       0.00000000       0.00000000      -0.00531200       0.10441500       0.10256400       0.00000000
Y        2.50539747       6.56287676      15.88636757  T        1       0.00456700       0.00293400      -0.01162900       0.00456700       0.00293400      -0.01162900       0.00000000
Y        5.79404748       7.55368575      14.84389181  F        0       0.00000000       0.00000000       0.00000000       0.07594500      -0.00896300       0.25742000       0.00000000
Y        5.79404748       7.55368575      11.18356962  F        0       0.00000000       0.00000000       0.00000000       0.02141300       0.04933800       0.05665000       0.00000000
Y        2.50215161       6.55029162       9.98236436  F        0       0.00000000       0.00000000       0.00000000      -0.01723200      -0.06529500       0.43364300       0.00000000
Y        6.71214974       3.98549232      14.84389181  F        0       0.00000000       0.00000000       0.00000000       0.13360500       0.18297800       0.14773700       0.00000000
Y        3.52188513       3.06230320      15.93841683  T        1      -0.01136700       0.00353900      -0.00442900      -0.01136700       0.00353900      -0.00442900       0.00000000
Pt       1.53091518       4.45438488      17.42897362  T        1       0.02579000      -0.01768100       0.00187700       0.02579000      -0.01768100       0.00187700       0.00000000
Pt       4.92887795       2.49345693      13.01373167  F        0       0.00000000       0.00000000       0.00000000       0.06344500      -0.01667400      -0.17286500       0.00000000
Pt       4.25624840       8.16011778      17.34266542  T        1      -0.00060800       0.01165600      -0.01130200      -0.00060800       0.01165600      -0.01130200       0.00000000
Pt       7.57731927       6.06164989      13.01373167  F        0       0.00000000       0.00000000       0.00000000      -0.06982400       0.02653800      -0.26720300       0.00000000
O        6.57207583       7.15632870      19.48734796  T        2      -0.00663700       0.00135800      -0.00304100      -0.00663700       0.00135800      -0.00304100       0.00000000
H        7.25067519       6.75776548      20.06566868  T        2      -0.00878600       0.01193000       0.00608200      -0.00878600       0.01193000       0.00608200       0.00000000
C        9.40569413       8.42974926      17.81502854  T        2       0.01133500      -0.02807300       0.00042500       0.01133500      -0.02807300       0.00042500       0.00000000
H        9.18575325       7.84397080      18.75251927  T        2      -0.00199800      -0.00832000      -0.01633200      -0.00199800      -0.00832000      -0.01633200       0.00000000
68
Lattice="13.167581558227539 -9.874104351638831e-32 -8.062818215849815e-16 8.739552012685086e-16 14.272771835327148 -8.739552012685086e-16 -0.0 4.7629234371348705e-15 38.89221954345703" Properties=species:S:1:pos:R:3:move_mask:L:1:tags:I:1:DFT_forces:R:3:forces:R:3 DFT_energy=-425.6687462 energy=-425.6687462 pbc="T T T"
Y        1.01798957       8.97907238      17.93976567  T        1       0.00522500       0.00046100       0.00056600       0.00522500       0.00046100       0.00056600
Y       10.32301224      12.21383175      13.01373167  F        0       0.00000000       0.00000000       0.00000000       0.00000000       0.00000000       0.00000000
Y       12.19051180      12.67266696      17.90556730  T        1       0.00082400       0.00087300      -0.00069000       0.00082400       0.00087300      -0.00069000
Y        8.76697541       1.50925311      13.01373167  F        0       0.00000000       0.00000000       0.00000000       0.00000000       0.00000000       0.00000000
Y       10.00404513      10.11848423       9.98236436  F        0       0.00000000       0.00000000       0.00000000       0.00000000       0.00000000       0.00000000
Y        0.12835896      11.12187847      11.18356962  F        0       0.00000000       0.00000000       0.00000000       0.00000000       0.00000000       0.00000000
Y        9.14797774      13.73948607      16.03125607  T        1      -0.00352000       0.00214500       0.00648700      -0.00352000       0.00214500       0.00648700
Y       12.37783778       0.41729983      14.84389181  F        0       0.00000000       0.00000000       0.00000000       0.00000000       0.00000000       0.00000000
Y       12.37783778       0.41729983      11.18356962  F        0       0.00000000       0.00000000       0.00000000       0.00000000       0.00000000       0.00000000
Y        9.08594239      13.68667707       9.98236436  F        0       0.00000000       0.00000000       0.00000000       0.00000000       0.00000000       0.00000000
Y        0.12835896      11.12187847      14.84389181  F        0       0.00000000       0.00000000       0.00000000       0.00000000       0.00000000       0.00000000
Y        9.90355948      10.18836277      16.24154199  T        1      -0.00506900      -0.00181900       0.00859100      -0.00506900      -0.00181900       0.00859100
Pt       7.64270331      11.80287035      17.39708685  T        1      -0.00499800      -0.00027200       0.00357800      -0.00499800      -0.00027200       0.00357800
Pt      11.51266849       9.62984279      13.01373167  F        0       0.00000000       0.00000000       0.00000000       0.00000000       0.00000000       0.00000000
Pt      11.27910161       0.94360284      17.42075092  T        1       0.00494200      -0.00700900       0.00099500       0.00494200      -0.00700900       0.00099500
Pt       0.99352849      13.19803580      13.01373167  F        0       0.00000000       0.00000000       0.00000000       0.00000000       0.00000000       0.00000000
Y        0.83172475       1.81798586      17.84761098  T        1       0.00157900      -0.00091500      -0.00386900       0.00157900      -0.00091500      -0.00386900
Y       10.32301224       5.07744559      13.01373167  F        0       0.00000000       0.00000000       0.00000000       0.00000000       0.00000000       0.00000000
Y       12.05619043       5.36517593      17.88621602  T        1       0.01027700       0.01188300      -0.00170100       0.01027700       0.01188300      -0.00170100
Y        8.76697541       8.64563903      13.01373167  F        0       0.00000000       0.00000000       0.00000000       0.00000000       0.00000000       0.00000000
Y       10.00404513       2.98209819       9.98236436  F        0       0.00000000       0.00000000       0.00000000       0.00000000       0.00000000       0.00000000
Y        0.12835896       3.98549232      11.18356962  F        0       0.00000000       0.00000000       0.00000000       0.00000000       0.00000000       0.00000000
Y        9.07974925       6.64089422      16.17797308  T        1       0.00483900      -0.00933100      -0.00196900       0.00483900      -0.00933100      -0.00196900
Y       12.37783778       7.55368575      14.84389181  F        0       0.00000000       0.00000000       0.00000000       0.00000000       0.00000000       0.00000000
Y       12.37783778       7.55368575      11.18356962  F        0       0.00000000       0.00000000       0.00000000       0.00000000       0.00000000       0.00000000
Y        9.08594239       6.55029162       9.98236436  F        0       0.00000000       0.00000000       0.00000000       0.00000000       0.00000000       0.00000000
Y        0.12835896       3.98549232      14.84389181  F        0       0.00000000       0.00000000       0.00000000       0.00000000       0.00000000       0.00000000
Y        9.99646820       2.99725733      15.98995050  T        1      -0.00096700       0.00211400       0.00747000      -0.00096700       0.00211400       0.00747000
Pt       7.93553818       4.34702128      17.40283825  T        1      -0.01181700       0.00046100       0.00113400      -0.01181700       0.00046100       0.00113400
Pt      11.51266849       2.49345693      13.01373167  F        0       0.00000000       0.00000000       0.00000000       0.00000000       0.00000000       0.00000000
Pt      11.50767819       7.98617753      17.46739441  T        1       0.00243900       0.00909000      -0.00299200       0.00243900       0.00909000      -0.00299200
Pt       0.99352849       6.06164989      13.01373167  F        0       0.00000000       0.00000000       0.00000000       0.00000000       0.00000000       0.00000000
Y        7.14714775       8.95730449      18.03413418  T        1       0.00604000      -0.00664300       0.00300300       0.00604000      -0.00664300       0.00300300
Y        3.73922170      12.21383175      13.01373167  F        0       0.00000000       0.00000000       0.00000000       0.00000000       0.00000000       0.00000000
Y        4.93203726      12.49790329      17.87528841  T        1      -0.00328600       0.00215200       0.00048700      -0.00328600       0.00215200       0.00048700
Y        2.18318475       1.50925311      13.01373167  F        0       0.00000000       0.00000000       0.00000000       0.00000000       0.00000000       0.00000000
Y        3.42025483      10.11848423       9.98236436  F        0       0.00000000       0.00000000       0.00000000       0.00000000       0.00000000       0.00000000
Y        6.71214974      11.12187847      11.18356962  F        0       0.00000000       0.00000000       0.00000000       0.00000000       0.00000000       0.00000000
Y        2.45371641      13.74109208      15.81400043  T        1      -0.00147700       0.00118000      -0.00126900      -0.00147700       0.00118000      -0.00126900
Y        5.79404748       0.41729983      14.84389181  F        0       0.00000000       0.00000000       0.00000000       0.00000000       0.00000000       0.00000000
Y        5.79404748       0.41729983      11.18356962  F        0       0.00000000       0.00000000       0.00000000       0.00000000       0.00000000       0.00000000
Y        2.50215161      13.68667707       9.98236436  F        0       0.00000000       0.00000000       0.00000000       0.00000000       0.00000000       0.00000000
Y        6.71214974      11.12187847      14.84389181  F        0       0.00000000       0.00000000       0.00000000       0.00000000       0.00000000       0.00000000
Y        3.43264943      10.17420767      15.75294890  T        1      -0.00020500       0.00018200      -0.00208800      -0.00020500       0.00018200      -0.00208800
Pt       1.62701050      11.63371967      17.40435356  T        1       0.00281800       0.00233700       0.00045600       0.00281800       0.00233700       0.00045600
Pt       4.92887795       9.62984279      13.01373167  F        0       0.00000000       0.00000000       0.00000000       0.00000000       0.00000000       0.00000000
Pt       4.34475866       0.87987770      17.41911434  T        1      -0.00420900       0.00109900       0.00144700      -0.00420900       0.00109900       0.00144700
Pt       7.57731927      13.19803580      13.01373167  F        0       0.00000000       0.00000000       0.00000000       0.00000000       0.00000000       0.00000000
Y        6.99996928       1.79125071      17.88811820  T        1      -0.00546900       0.00179300      -0.00139700      -0.00546900       0.00179300      -0.00139700
Y        3.73922170       5.07744559      13.01373167  F        0       0.00000000       0.00000000       0.00000000       0.00000000       0.00000000       0.00000000
Y        5.52659390       5.75499018      18.10885635  T        1      -0.01209000      -0.00065500      -0.00059700      -0.01209000      -0.00065500      -0.00059700
Y        2.18318475       8.64563903      13.01373167  F        0       0.00000000       0.00000000       0.00000000       0.00000000       0.00000000       0.00000000
Y        3.42025483       2.98209819       9.98236436  F        0       0.00000000       0.00000000       0.00000000       0.00000000       0.00000000       0.00000000
Y        6.71214974       3.98549232      11.18356962  F        0       0.00000000       0.00000000       0.00000000       0.00000000       0.00000000       0.00000000
Y        2.50341774       6.56033969      15.89146304  T        1      -0.00022600       0.00199600      -0.00100400      -0.00022600       0.00199600      -0.00100400
Y        5.79404748       7.55368575      14.84389181  F        0       0.00000000       0.00000000       0.00000000       0.00000000       0.00000000       0.00000000
Y        5.79404748       7.55368575      11.18356962  F        0       0.00000000       0.00000000       0.00000000       0.00000000       0.00000000       0.00000000
Y        2.50215161       6.55029162       9.98236436  F        0       0.00000000       0.00000000       0.00000000       0.00000000       0.00000000       0.00000000
Y        6.71214974       3.98549232      14.84389181  F        0       0.00000000       0.00000000       0.00000000       0.00000000       0.00000000       0.00000000
Y        3.52357887       3.06971026      15.93336302  T        1      -0.00143300      -0.00092600      -0.00412700      -0.00143300      -0.00092600      -0.00412700
Pt       1.50537890       4.44290091      17.42445945  T        1       0.00911400       0.00041100       0.00268000       0.00911400       0.00041100       0.00268000
Pt       4.92887795       2.49345693      13.01373167  F        0       0.00000000       0.00000000       0.00000000       0.00000000       0.00000000       0.00000000
Pt       4.23613070       8.15030362      17.36090008  T        1      -0.00120700       0.00185000      -0.00456700      -0.00120700       0.00185000      -0.00456700
Pt       7.57731927       6.06164989      13.01373167  F        0       0.00000000       0.00000000       0.00000000       0.00000000       0.00000000       0.00000000
O        6.67214338       7.13967881      19.43497686  T        2      -0.04366900       0.00944000      -0.00260500      -0.04366900       0.00944000      -0.00260500
H        7.50118157       6.73035859      19.75416448  T        2      -0.02385500      -0.02796800       0.05769300      -0.02385500      -0.02796800       0.05769300
C        9.42603983       8.47422124      17.78624529  T        2      -0.00378600       0.00302800      -0.00460900      -0.00378600       0.00302800      -0.00460900
H        9.33022111       8.46179615      18.90988484  T        2      -0.01334500      -0.07136900       0.03918200      -0.01334500      -0.07136900       0.03918200
68
Lattice="13.167581558227539 -9.874104351638831e-32 -8.062818215849815e-16 8.739552012685086e-16 14.272771835327148 -8.739552012685086e-16 -0.0 4.7629234371348705e-15 38.89221954345703" Properties=species:S:1:pos:R:3:move_mask:L:1:tags:I:1:DFT_forces:R:3:forces:R:3 DFT_energy=-425.60332494 energy=-425.60332494 pbc="T T T"
Y        0.99285486       8.96111676      17.93595542  T        1       0.00397600      -0.00022700       0.00136700       0.00397600      -0.00022700       0.00136700
Y       10.32301224      12.21383175      13.01373167  F        0       0.00000000       0.00000000       0.00000000       0.00000000       0.00000000       0.00000000
Y       12.16679343      12.67988197      17.89728708  T        1       0.00132300       0.00110000      -0.00091300       0.00132300       0.00110000      -0.00091300
Y        8.76697541       1.50925311      13.01373167  F        0       0.00000000       0.00000000       0.00000000       0.00000000       0.00000000       0.00000000
Y       10.00404513      10.11848423       9.98236436  F        0       0.00000000       0.00000000       0.00000000       0.00000000       0.00000000       0.00000000
Y        0.12835896      11.12187847      11.18356962  F        0       0.00000000       0.00000000       0.00000000       0.00000000       0.00000000       0.00000000
Y        9.15265936      13.74188282      16.00758044  T        1      -0.00112000       0.00329300       0.00901700      -0.00112000       0.00329300       0.00901700
Y       12.37783778       0.41729983      14.84389181  F        0       0.00000000       0.00000000       0.00000000       0.00000000       0.00000000       0.00000000
Y       12.37783778       0.41729983      11.18356962  F        0       0.00000000       0.00000000       0.00000000       0.00000000       0.00000000       0.00000000
Y        9.08594239      13.68667707       9.98236436  F        0       0.00000000       0.00000000       0.00000000       0.00000000       0.00000000       0.00000000
Y        0.12835896      11.12187847      14.84389181  F        0       0.00000000       0.00000000       0.00000000       0.00000000       0.00000000       0.00000000
Y        9.92941080      10.21095347      16.18382902  T        1       0.00331400       0.00275100      -0.00323300       0.00331400       0.00275100      -0.00323300
Pt       7.67220508      11.80713795      17.38762988  T        1      -0.00723600      -0.00854900       0.00742100      -0.00723600      -0.00854900       0.00742100
Pt      11.51266849       9.62984279      13.01373167  F        0       0.00000000       0.00000000       0.00000000       0.00000000       0.00000000       0.00000000
Pt      11.26390753       0.95844989      17.41865376  T        1       0.00089800      -0.00619900      -0.00259500       0.00089800      -0.00619900      -0.00259500
Pt       0.99352849      13.19803580      13.01373167  F        0       0.00000000       0.00000000       0.00000000       0.00000000       0.00000000       0.00000000
Y        0.81880787       1.81805088      17.84489465  T        1       0.00736600      -0.00128500      -0.00144000       0.00736600      -0.00128500      -0.00144000
Y       10.32301224       5.07744559      13.01373167  F        0       0.00000000       0.00000000       0.00000000       0.00000000       0.00000000       0.00000000
Y       12.00718663       5.31025213      17.89118592  T        1       0.01001300       0.00331000       0.00145000       0.01001300       0.00331000       0.00145000
Y        8.76697541       8.64563903      13.01373167  F        0       0.00000000       0.00000000       0.00000000       0.00000000       0.00000000       0.00000000
Y       10.00404513       2.98209819       9.98236436  F        0       0.00000000       0.00000000       0.00000000       0.00000000       0.00000000       0.00000000
Y        0.12835896       3.98549232      11.18356962  F        0       0.00000000       0.00000000       0.00000000       0.00000000       0.00000000       0.00000000
Y        9.07599277       6.69532803      16.21961842  T        1       0.00128300      -0.00779100       0.00025500       0.00128300      -0.00779100       0.00025500
Y       12.37783778       7.55368575      14.84389181  F        0       0.00000000       0.00000000       0.00000000       0.00000000       0.00000000       0.00000000
Y       12.37783778       7.55368575      11.18356962  F        0       0.00000000       0.00000000       0.00000000       0.00000000       0.00000000       0.00000000
Y        9.08594239       6.55029162       9.98236436  F        0       0.00000000       0.00000000       0.00000000       0.00000000       0.00000000       0.00000000
Y        0.12835896       3.98549232      14.84389181  F        0       0.00000000       0.00000000       0.00000000       0.00000000       0.00000000       0.00000000
Y        9.99842594       2.99479676      15.95538873  T        1      -0.00558900       0.00065300       0.00832500      -0.00558900       0.00065300       0.00832500
Pt       7.97204835       4.33524407      17.39555343  T        1      -0.01397000       0.00486800       0.00149500      -0.01397000       0.00486800       0.00149500