54
Lattice="10.773274421691895 0.0 -1.732474603501847e-15 2.5233672658033163e-15 15.691385269165039 3.8113081455230713 0.0 0.0 30.49046516418457" Properties=species:S:1:pos:R:3:move_mask:L:1:tags:I:1:DFT_forces:R:3:forces:R:3:magmoms:R:1 DFT_energy=-230.44326253 energy=-230.44326253 dipole="_JSON [[0.0, 0.0, 0.0]]" magmom=0.0 free_energy=-230.45130576 pbc="T T T"
Ge       8.15194924       6.40618359      11.52911084  F        0       0.00000000       0.00000000       0.00000000       0.45508200       0.09338800       0.00695800       0.00000000
Ge       9.80218156       1.73917590       7.71780270  F        0       0.00000000       0.00000000       0.00000000       0.79270800      -0.23334700      -0.37105100       0.00000000
Ge       2.76531203       9.58486854      11.52911084  F        0       0.00000000       0.00000000       0.00000000       0.50224000       0.00521500      -0.28937500       0.00000000
Ge       4.41554423      14.25187598      11.52911084  F        0       0.00000000       0.00000000       0.00000000       0.68339700       0.19370500       0.31008000       0.00000000
Ge       5.84125264       8.33601438       9.62345689  F        0       0.00000000       0.00000000       0.00000000      -0.66013400      -0.37937500       0.47809000       0.00000000
Ge       1.33960326      15.50072967      13.43476575  F        0       0.00000000       0.00000000       0.00000000       0.07352200       0.40782900      -0.51174900       0.00000000
Ge       0.45461543       7.65503727       9.62345689  F        0       0.00000000       0.00000000       0.00000000      -0.89797200       0.64327700       0.49773500       0.00000000
Ge       6.72624095       0.49032222       9.62345760  F        0       0.00000000       0.00000000       0.00000000      -0.37130500      -0.17507700      -0.22269700       0.00000000
As       7.41037877       8.78856240      11.52911084  F        0       0.00000000       0.00000000       0.00000000       0.66815900       0.15776500      -0.96015700       0.00000000
As      10.54375203      15.04818164      11.52911084  F        0       0.00000000       0.00000000       0.00000000      -0.12049400       0.20362800       0.30485300       0.00000000
As       2.02374156       7.20248948      11.52911084  F        0       0.00000000       0.00000000       0.00000000       0.43175900      -0.07905100      -0.27450800       0.00000000
As       5.15711470       0.94286929       7.71780270  F        0       0.00000000       0.00000000       0.00000000      -0.22591300      -0.15805700       0.49362400       0.00000000
As       6.13969644       4.88886641      11.52911084  F        0       0.00000000       0.00000000       0.00000000      -0.69354500       0.68545700      -1.01639800       0.00000000
As       1.18354897       2.97769204      11.66948669  T        1       0.01200800      -0.00122100       0.00181700       0.01200800      -0.00122100       0.00181700       0.00000000
As       0.75305923      11.10218535      11.52911084  F        0       0.00000000       0.00000000       0.00000000      -0.96661300      -0.54020100      -0.50780000       0.00000000
As       6.42779716      12.73455916      11.52911084  F        0       0.00000000       0.00000000       0.00000000      -0.08754300       0.26400100       0.07349000       0.00000000
As       4.83462949       5.97300755       9.62345689  F        0       0.00000000       0.00000000       0.00000000       0.84905300       0.06351800       1.12273000       0.00000000
As       2.34622653       2.17235194       9.62345760  F        0       0.00000000       0.00000000       0.00000000      -0.64631600      -0.52501700      -0.17473100       0.00000000
As      10.22126659      10.01804410       9.62345689  F        0       0.00000000       0.00000000       0.00000000       0.81282300      -0.39991100       0.82191300       0.00000000
As       7.73286422      13.81869994      13.43476575  F        0       0.00000000       0.00000000       0.00000000      -0.48772300      -0.24465700      -0.61905700       0.00000000
As       4.23380275      10.28008281       9.62345689  F        0       0.00000000       0.00000000       0.00000000       0.10820700      -0.10309300       0.25864700       0.00000000
As       2.94705375      13.55666171      13.43476575  F        0       0.00000000       0.00000000       0.00000000      -0.12298800      -0.16176000      -0.14224800       0.00000000
As       9.62043985       5.71096896       9.62345689  F        0       0.00000000       0.00000000       0.00000000      -0.00324100       0.25236100       0.13751500       0.00000000
As       8.33369096       2.43439017       9.62345760  F        0       0.00000000       0.00000000       0.00000000      -0.11331300       0.11780600       0.58520600       0.00000000
Ge       8.44307672       7.00324918      15.63065253  T        1      -0.00429900       0.00881100      -0.00704700      -0.00429900       0.00881100      -0.00704700       0.00000000
Ge       9.82216365       1.62777658      11.48283493  T        1       0.00441200      -0.00102700       0.00752200       0.00441200      -0.00102700       0.00752200       0.00000000
Ge       3.52717839       9.21750047      15.45152146  T        1       0.02228800       0.00140000       0.00931900       0.02228800       0.00140000       0.00931900       0.00000000
Ge       4.43926682      14.13969316      15.39054260  T        1       0.00661100       0.00827400      -0.01081900       0.00661100       0.00827400      -0.01081900       0.00000000
Ge       6.04219960       8.71715063      13.52104881  T        1      -0.02250200      -0.01131000      -0.00532700      -0.02250200      -0.01131000      -0.00532700       0.00000000
Ge       1.05234842      15.10650238      17.02957023  T        1       0.01013400      -0.00106700       0.01906400       0.01013400      -0.00106700       0.01906400       0.00000000
Ge       0.63281555       7.53189349      13.58823155  T        1      -0.00256300      -0.00787500       0.01167900      -0.00256300      -0.00787500       0.01167900       0.00000000
Ge       7.27211078       0.07140904      13.17770930  T        1       0.00051700       0.00291300      -0.01011600       0.00051700       0.00291300      -0.01011600       0.00000000
As       8.09304413       9.41073036      14.96105017  T        1      -0.00627100      -0.00195500      -0.00163400      -0.00627100      -0.00195500      -0.00163400       0.00000000
As      10.34441132      14.87177598      15.07602522  T        1      -0.00929500      -0.00206200      -0.00385800      -0.00929500      -0.00206200      -0.00385800       0.00000000
As       2.61748328       6.92361766      15.17251617  T        1      -0.00072000       0.00369500       0.00311000      -0.00072000       0.00369500       0.00311000       0.00000000
As       5.33074938       0.81473351      11.76097873  T        1       0.00388400      -0.00027700       0.00458800       0.00388400      -0.00027700       0.00458800       0.00000000
As       6.07496382       6.08801839      16.11448691  T        1      -0.00848400      -0.01438300       0.00318100      -0.00848400      -0.01438300       0.00318100       0.00000000
As       0.00812888       0.84566942      15.01958921  T        1       0.00319200      -0.00945600      -0.00738900       0.00319200      -0.00945600      -0.00738900       0.00000000
As       0.33072483      10.60322819      16.37851210  T        1       0.00575400      -0.00197600      -0.00811200       0.00575400      -0.00197600      -0.00811200       0.00000000
As       6.52078403      12.64479206      15.39213392  T        1      -0.00514000      -0.00215700       0.00075300      -0.00514000      -0.00215700       0.00075300       0.00000000
As       4.90549936       6.47289779      13.93060037  T        1       0.03447600      -0.00200700       0.00335900       0.03447600      -0.00200700       0.00335900       0.00000000
As       2.03428108       1.65482487      13.62052824  T        1       0.00430400      -0.01471000      -0.00113200       0.00430400      -0.01471000      -0.00113200       0.00000000
As      10.43219413       9.90590790      13.86977930  T        1       0.01692500      -0.00364500      -0.00277900       0.01692500      -0.00364500      -0.00277900       0.00000000
As       7.78193087      13.47928598      17.30611323  T        1       0.00544100      -0.00487700       0.00335300       0.00544100      -0.00487700       0.00335300       0.00000000
As       4.29687132      10.49541335      13.40278397  T        1       0.00234700       0.00059000       0.01080900       0.00234700       0.00059000       0.01080900       0.00000000
As       2.84815757      13.37432094      17.35968796  T        1       0.00685900       0.01180000       0.00042500       0.00685900       0.01180000       0.00042500       0.00000000
As       9.53872046       5.82980668      13.70277557  T        1      -0.00646200      -0.00104000      -0.00128200      -0.00646200      -0.00104000      -0.00128200       0.00000000
As       8.84330417       1.91454114      13.82114235  T        1      -0.00198700       0.00394800      -0.00166800      -0.00198700       0.00394800      -0.00166800       0.00000000
C        5.36909762       7.77722024      17.14705005  T        2      -0.01873400       0.03935900       0.01285900      -0.01873400       0.03935900       0.01285900       0.00000000
H        6.16647744       7.97978918      17.88716858  T        2      -0.01240700      -0.03492800      -0.00672800      -0.01240700      -0.03492800      -0.00672800       0.00000000
H        4.47720524       7.39574139      17.67921897  T        2       0.01936500       0.00358600      -0.00749500       0.01936500       0.00358600      -0.00749500       0.00000000
O        5.12089608       8.98143296      16.44639974  T        2       0.00412700      -0.03799200       0.00396300       0.00412700      -0.03799200       0.00396300       0.00000000
C        2.30108623      10.47077218      16.38055126  T        2      -0.00913400      -0.01338000      -0.01391300      -0.00913400      -0.01338000      -0.01391300       0.00000000
C        2.01264576      11.74683797      16.65163991  T        2      -0.03449800      -0.00543600      -0.00757300      -0.03449800      -0.00543600      -0.00757300       0.00000000
54
Lattice="10.773274421691895 0.0 -1.732474603501847e-15 2.5233672658033163e-15 15.691385269165039 3.8113081455230713 0.0 0.0 30.49046516418457" Properties=species:S:1:pos:R:3:move_mask:L:1:tags:I:1:DFT_forces:R:3:forces:R:3 DFT_energy=-228.68043622 energy=-228.68043622 pbc="T T T"
Ge       8.15194924       6.40618359      11.52911084  F        0       0.00000000       0.00000000       0.00000000       0.00000000       0.00000000       0.00000000
Ge       9.80218156       1.73917590       7.71780270  F        0       0.00000000       0.00000000       0.00000000       0.00000000       0.00000000       0.00000000
Ge       2.76531203       9.58486854      11.52911084  F        0       0.00000000       0.00000000       0.00000000       0.00000000       0.00000000       0.00000000
Ge       4.41554423      14.25187598      11.52911084  F        0       0.00000000       0.00000000       0.00000000       0.00000000       0.00000000       0.00000000
Ge       5.84125264       8.33601438       9.62345689  F        0       0.00000000       0.00000000       0.00000000       0.00000000       0.00000000       0.00000000
Ge       1.33960326      15.50072967      13.43476575  F        0       0.00000000       0.00000000       0.00000000       0.00000000       0.00000000       0.00000000
Ge       0.45461543       7.65503727       9.62345689  F        0       0.00000000       0.00000000       0.00000000       0.00000000       0.00000000       0.00000000
Ge       6.72624095       0.49032222       9.62345760  F        0       0.00000000       0.00000000       0.00000000       0.00000000       0.00000000       0.00000000
As       7.41037877       8.78856240      11.52911084  F        0       0.00000000       0.00000000       0.00000000       0.00000000       0.00000000       0.00000000
As      10.54375203      15.04818164      11.52911084  F        0       0.00000000       0.00000000       0.00000000       0.00000000       0.00000000       0.00000000
As       2.02374156       7.20248948      11.52911084  F        0       0.00000000       0.00000000       0.00000000       0.00000000       0.00000000       0.00000000
As       5.15711470       0.94286929       7.71780270  F        0       0.00000000       0.00000000       0.00000000       0.00000000       0.00000000       0.00000000
As       6.13969644       4.88886641      11.52911084  F        0       0.00000000       0.00000000       0.00000000       0.00000000       0.00000000       0.00000000
As       1.15945169       3.03722981      11.63133685  T        1      -0.00316000       0.03506300      -0.01892600      -0.00316000       0.03506300      -0.01892600
As       0.75305923      11.10218535      11.52911084  F        0       0.00000000       0.00000000       0.00000000       0.00000000       0.00000000       0.00000000
As       6.42779716      12.73455916      11.52911084  F        0       0.00000000       0.00000000       0.00000000       0.00000000       0.00000000       0.00000000
As       4.83462949       5.97300755       9.62345689  F        0       0.00000000       0.00000000       0.00000000       0.00000000       0.00000000       0.00000000
As       2.34622653       2.17235194       9.62345760  F        0       0.00000000       0.00000000       0.00000000       0.00000000       0.00000000       0.00000000
As      10.22126659      10.01804410       9.62345689  F        0       0.00000000       0.00000000       0.00000000       0.00000000       0.00000000       0.00000000
As       7.73286422      13.81869994      13.43476575  F        0       0.00000000       0.00000000       0.00000000       0.00000000       0.00000000       0.00000000
As       4.23380275      10.28008281       9.62345689  F        0       0.00000000       0.00000000       0.00000000       0.00000000       0.00000000       0.00000000
As       2.94705375      13.55666171      13.43476575  F        0       0.00000000       0.00000000       0.00000000       0.00000000       0.00000000       0.00000000
As       9.62043985       5.71096896       9.62345689  F        0       0.00000000       0.00000000       0.00000000       0.00000000       0.00000000       0.00000000
As       8.33369096       2.43439017       9.62345760  F        0       0.00000000       0.00000000       0.00000000       0.00000000       0.00000000       0.00000000
Ge       8.15511334       6.79948766      15.21488539  T        1       0.00858400       0.00815300      -0.00560000       0.00858400       0.00815300      -0.00560000
Ge       9.82581986       1.64328982      11.48238062  T        1       0.00343100       0.02288800      -0.00490200       0.00343100       0.02288800      -0.00490200
Ge       3.44576400       9.78335873      15.54482835  T        1       0.06496300      -0.09948900       0.03712500       0.06496300      -0.09948900       0.03712500
Ge       4.43631252      14.16556875      15.39398365  T        1      -0.02433100      -0.00453700       0.01479300      -0.02433100      -0.00453700       0.01479300
Ge       5.90205234       8.79477388      13.49688316  T        1       0.00213600      -0.01233300      -0.00596600       0.00213600      -0.01233300      -0.00596600
Ge       1.09520248      15.26338310      17.05743947  T        1      -0.02616200       0.04634400      -0.00886300      -0.02616200       0.04634400      -0.00886300
Ge       0.67475380       7.58283381      13.62656438  T        1      -0.00040000       0.04703200       0.00366900      -0.00040000       0.04703200       0.00366900
Ge       7.27946419       0.05101240      13.16562602  T        1      -0.01218900       0.00913600      -0.00940900      -0.01218900       0.00913600      -0.00940900
As       7.86372212       9.26866211      15.02248076  T        1       0.00426600       0.02142100      -0.01889800       0.00426600       0.02142100      -0.01889800
As      10.37999053      14.89821549      15.12540137  T        1      -0.01557500       0.02997700       0.00091700      -0.01557500       0.02997700       0.00091700
As       2.60801016       7.37698239      15.37282923  T        1       0.03883100      -0.05500600      -0.03326900       0.03883100      -0.05500600      -0.03326900
As       5.34857740       0.82337810      11.75340289  T        1      -0.01345900       0.00002900      -0.00569000      -0.01345900       0.00002900      -0.00569000
As       6.14721432       5.25021271      15.26278068  T        1       0.02179600      -0.01790000      -0.01290900       0.02179600      -0.01790000      -0.01290900
As       0.00904799       0.95011957      15.04105123  T        1      -0.01679100       0.03964100      -0.00300600      -0.01679100       0.03964100      -0.00300600
As      -0.08662945      10.85320245      16.06497267  T        1       0.17134000       0.06639500       0.12064600       0.17134000       0.06639500       0.12064600
As       6.47773719      12.60795674      15.40096306  T        1      -0.01285200      -0.00025900       0.01222000      -0.01285200      -0.00025900       0.01222000
As       4.60268451       6.65890587      13.93049326  T        1       0.03623800      -0.03382200      -0.03842800       0.03623800      -0.03382200      -0.03842800
As       2.02226113       1.82109243      13.65122957  T        1      -0.01319700       0.03712900      -0.00609900      -0.01319700       0.03712900      -0.00609900
As      10.17219348       9.85544618      13.72841473  T        1       0.03760700       0.08938700       0.02527100       0.03760700       0.08938700       0.02527100
As       7.77102504      13.45077701      17.28912941  T        1      -0.01859300       0.00487200       0.00693500      -0.01859300       0.00487200       0.00693500
As       4.27799162      10.66420720      13.26889165  T        1      -0.01732500      -0.03316500       0.03187400      -0.01732500      -0.03316500       0.03187400
As       2.81908584      13.49179007      17.39257024  T        1      -0.14170900      -0.02343500      -0.07198600      -0.14170900      -0.02343500      -0.07198600
As       9.68666890       5.73704496      13.61496256  T        1       0.01612900       0.03179200       0.00202000       0.01612900       0.03179200       0.00202000
As       8.81914090       1.92815049      13.80712127  T        1      -0.01672800       0.01950900      -0.01016500      -0.01672800       0.01950900      -0.01016500
C        7.14992451       6.15410973      16.81614792  T        2       0.00452900      -0.00068700      -0.02918700       0.00452900      -0.00068700      -0.02918700
H        7.58504802       5.37466298      17.45511130  T        2       0.00809900       0.01068900       0.00238600       0.00809900       0.01068900       0.00238600
H        6.67611580       6.97470718      17.36990950  T        2      -0.02475200       0.00812300       0.00316500      -0.02475200       0.00812300       0.00316500
O        4.77635266      10.08381289      16.62702495  T        2       0.14075600      -0.11408600      -0.03874400       0.14075600      -0.11408600      -0.03874400
C        1.86433303      10.88433137      16.07612780  T        2       0.20072000      -0.22129500       0.03018500       0.20072000      -0.22129500       0.03018500
C        1.77185749      12.09024034      16.59667818  T        2      -0.21670900      -0.04149300      -0.03759200      -0.21670900      -0.04149300      -0.03759200
54
Lattice="10.773274421691895 0.0 -1.732474603501847e-15 2.5233672658033163e-15 15.691385269165039 3.8113081455230713 0.0 0.0 30.49046516418457" Properties=species:S:1:pos:R:3:move_mask:L:1:tags:I:1:DFT_forces:R:3:forces:R:3 DFT_energy=-228.78255139 energy=-228.78255139 pbc="T T T"
Ge       8.15194924       6.40618359      11.52911084  F        0       0.00000000       0.00000000       0.00000000       0.00000000       0.00000000       0.00000000
Ge       9.80218156       1.73917590       7.71780270  F        0       0.00000000       0.00000000       0.00000000       0.00000000       0.00000000       0.00000000
Ge       2.76531203       9.58486854      11.52911084  F        0       0.00000000       0.00000000       0.00000000       0.00000000       0.00000000       0.00000000
Ge       4.41554423      14.25187598      11.52911084  F        0       0.00000000       0.00000000       0.00000000       0.00000000       0.00000000       0.00000000
Ge       5.84125264       8.33601438       9.62345689  F        0       0.00000000       0.00000000       0.00000000       0.00000000       0.00000000       0.00000000
Ge       1.33960326      15.50072967      13.43476575  F        0       0.00000000       0.00000000       0.00000000       0.00000000       0.00000000       0.00000000
Ge       0.45461543       7.65503727       9.62345689  F        0       0.00000000       0.00000000       0.00000000       0.00000000       0.00000000       0.00000000
Ge       6.72624095       0.49032222       9.62345760  F        0       0.00000000       0.00000000       0.00000000       0.00000000       0.00000000       0.00000000
As       7.41037877       8.78856240      11.52911084  F        0       0.00000000       0.00000000       0.00000000       0.00000000       0.00000000       0.00000000
As      10.54375203      15.04818164      11.52911084  F        0       0.00000000       0.00000000       0.00000000       0.00000000       0.00000000       0.00000000
As       2.02374156       7.20248948      11.52911084  F        0       0.00000000       0.00000000       0.00000000       0.00000000       0.00000000       0.00000000
As       5.15711470       0.94286929       7.71780270  F        0       0.00000000       0.00000000       0.00000000       0.00000000       0.00000000       0.00000000
As       6.13969644       4.88886641      11.52911084  F        0       0.00000000       0.00000000       0.00000000       0.00000000       0.00000000       0.00000000
As       1.17081568       2.98109718      11.66012894  T        1      -0.00543300       0.01365800      -0.00422600      -0.00543300       0.01365800      -0.00422600
As       0.75305923      11.10218535      11.52911084  F        0       0.00000000       0.00000000       0.00000000       0.00000000       0.00000000       0.00000000
As       6.42779716      12.73455916      11.52911084  F        0       0.00000000       0.00000000       0.00000000       0.00000000       0.00000000       0.00000000
As       4.83462949       5.97300755       9.62345689  F        0       0.00000000       0.00000000       0.00000000       0.00000000       0.00000000       0.00000000
As       2.34622653       2.17235194       9.62345760  F        0       0.00000000       0.00000000       0.00000000       0.00000000       0.00000000       0.00000000
As      10.22126659      10.01804410       9.62345689  F        0       0.00000000       0.00000000       0.00000000       0.00000000       0.00000000       0.00000000
As       7.73286422      13.81869994      13.43476575  F        0       0.00000000       0.00000000       0.00000000       0.00000000       0.00000000       0.00000000
As       4.23380275      10.28008281       9.62345689  F        0       0.00000000       0.00000000       0.00000000       0.00000000       0.00000000       0.00000000
As       2.94705375      13.55666171      13.43476575  F        0       0.00000000       0.00000000       0.00000000       0.00000000       0.00000000       0.00000000
As       9.62043985       5.71096896       9.62345689  F        0       0.00000000       0.00000000       0.00000000       0.00000000       0.00000000       0.00000000
As       8.33369096       2.43439017       9.62345760  F        0       0.00000000       0.00000000       0.00000000       0.00000000       0.00000000       0.00000000
Ge       8.14428455       6.76791419      15.22382697  T        1      -0.00957900      -0.00551700       0.00059000      -0.00957900      -0.00551700       0.00059000
Ge       9.82145060       1.60063541      11.49152459  T        1      -0.00124200       0.00490400      -0.00081700      -0.00124200       0.00490400      -0.00081700
Ge       3.34931415       9.93781457      15.48647340  T        1       0.01181600      -0.02192500      -0.00701800       0.01181600      -0.02192500      -0.00701800
Ge       4.47951340      14.17170992      15.37207147  T        1       0.00147800       0.00349900       0.00056900       0.00147800       0.00349900       0.00056900
Ge       5.89403041       8.82013904      13.50724600  T        1       0.00010300       0.00226700      -0.00551000       0.00010300       0.00226700      -0.00551000
Ge       1.14246774      15.17955284      17.06595576  T        1       0.00575500       0.03583600       0.01140900       0.00575500       0.03583600       0.01140900
Ge       0.67871781       7.49590912      13.61205990  T        1      -0.00685200      -0.01258000      -0.00327900      -0.00685200      -0.01258000      -0.00327900
Ge       7.29792727       0.03052708      13.18095454  T        1       0.00180300       0.00365300       0.00233000       0.00180300       0.00365300       0.00233000
As       7.85959047       9.22337705      15.05312576  T        1       0.00228500      -0.00515500      -0.00328200       0.00228500      -0.00515500      -0.00328200
As      10.40433817      14.84502722      15.12489682  T        1       0.00361700       0.01252500       0.00972700       0.00361700       0.01252500       0.00972700
As       2.54232111       7.46565768      15.41234470  T        1      -0.00578400      -0.01072700      -0.01321400      -0.00578400      -0.01072700      -0.01321400
As       5.37450190       0.82367975      11.76854492  T        1       0.00094400       0.00264500       0.00149700       0.00094400       0.00264500       0.00149700
As       6.09981321       5.26506886      15.27758902  T        1      -0.01304700      -0.00763700      -0.00802000      -0.01304700      -0.00763700      -0.00802000
As       0.04046089       0.87582428      15.04550003  T        1      -0.00190700       0.02646600       0.00367700      -0.00190700       0.02646600       0.00367700
As      -0.34534549      10.76671125      15.85677888  T        1       0.02713000      -0.04547200       0.02106700       0.02713000      -0.04547200       0.02106700
As       6.49802682      12.60830444      15.37535761  T        1       0.00457800      -0.00106400      -0.00002600       0.00457800      -0.00106400      -0.00002600
As       4.55574934       6.71539427      13.97764230  T        1      -0.00702900      -0.00222000      -0.01491900      -0.00702900      -0.00222000      -0.01491900
As       2.04811925       1.75771608      13.65758249  T        1      -0.00442100       0.02432400       0.00621000      -0.00442100       0.02432400       0.00621000
As      10.11596523       9.71627776      13.69354758  T        1       0.01289900      -0.00369300       0.00267400       0.01289900      -0.00369300       0.00267400
As       7.79391460      13.42585709      17.27656903  T        1       0.00690200      -0.00468200      -0.00428300       0.00690200      -0.00468200      -0.00428300
As       4.29583431      10.72622448      13.22108298  T        1       0.00929700       0.00585700      -0.00447300       0.00929700       0.00585700      -0.00447300
As       3.07333629      13.53077638      17.51600347  T        1       0.00224100       0.03534000       0.00615800       0.00224100       0.03534000       0.00615800
As       9.66236204       5.69190229      13.60913310  T        1      -0.00808100      -0.00502400       0.00048300      -0.00808100      -0.00502400       0.00048300
As       8.85033916       1.88522510      13.83604410  T        1      -0.00924700       0.01097200      -0.00496000      -0.00924700       0.01097200      -0.00496000
C        7.13719833       6.13736916      16.82785984  T        2      -0.00569300      -0.00733500      -0.01940400      -0.00569300      -0.00733500      -0.01940400
H        7.56463069       5.35125533      17.46327750  T        2      -0.00280100      -0.01170400       0.00295500      -0.00280100      -0.01170400       0.00295500
H        6.67990706       6.96381476      17.38732457  T        2      -0.00850000      -0.00336900      -0.00117800      -0.00850000      -0.00336900      -0.00117800
O        4.55857029      10.23288276      16.68268083  T        2       0.05455800      -0.12043500      -0.01299000       0.05455800      -0.12043500      -0.01299000
C        1.53197774      11.23484330      16.02287666  T        2       0.00205700       0.01922300       0.01757400       0.00205700       0.01922300       0.01757400
C        2.11104315      12.18297292      16.65130877  T        2      -0.01927300       0.02259100      -0.00391300      -0.01927300       0.02259100      -0.00391300
54
Lattice="10.773274421691895 0.0 -1.732474603501847e-15 2.5233672658033163e-15 15.691385269165039 3.8113081455230713 0.0 0.0 30.49046516418457" Properties=species:S:1:pos:R:3:move_mask:L:1:tags:I:1:DFT_forces:R:3:forces:R:3 DFT_energy=-228.71523664 energy=-228.71523664 pbc="T T T"
Ge       8.15194924       6.40618359      11.52911084  F        0       0.00000000       0.00000000       0.00000000       0.00000000       0.00000000       0.00000000
Ge       9.80218156       1.73917590       7.71780270  F        0       0.00000000       0.00000000       0.00000000       0.00000000       0.00000000       0.00000000
Ge       2.76531203       9.58486854      11.52911084  F        0       0.00000000       0.00000000       0.00000000       0.00000000       0.00000000       0.00000000