19
Lattice="9.324100494384766 -5.770129841774009e-31 -4.7116686264635655e-15 -1.0684360094250812e-14 8.40602970123291 -0.5219389200210571 -0.0 3.75533920637678e-15 30.6646728515625" Properties=species:S:1:pos:R:3:move_mask:L:1:tags:I:1:DFT_forces:R:3:forces:R:3:magmoms:R:1 DFT_energy=-62.39487934 energy=-62.39487934 dipole="_JSON [[0.0, 0.0, 0.0]]" magmom=0.0 free_energy=-62.40376814 pbc="T T T"
Bi       5.58384710       7.42680965      12.63713466  T        1      -0.00598600       0.01137500       0.01187100      -0.00598600       0.01137500       0.01187100       0.00000000
Bi       7.94435973       8.25474667       8.58972042  F        0       0.00000000       0.00000000       0.00000000      -0.04224000      -0.22128600       1.18675200       0.00000000
Te       7.87920201       0.19331430      14.78969659  T        1      -0.00540400       0.00785500      -0.00542900      -0.00540400       0.00785500      -0.00542900       0.00000000
Te       5.60082837       4.54683161      17.09653700  T        1      -0.00008000      -0.02751200      -0.00811500      -0.00008000      -0.02751200      -0.00811500       0.00000000
Te       5.61333484       1.22132247      10.87547999  F        0       0.00000000       0.00000000       0.00000000      -0.03270400      -0.46885700      -0.78009800       0.00000000
Te       7.94435973       5.83138721      10.72422724  F        0       0.00000000       0.00000000       0.00000000      -0.11023600       0.25964300      -0.73296200       0.00000000
Tl       8.03742564       3.07523738      13.16846950  T        1      -0.00291300      -0.01066300      -0.00837000      -0.00291300      -0.01066300      -0.00837000       0.00000000
Tl       5.61333484       4.05173176       8.85069018  F        0       0.00000000       0.00000000       0.00000000      -0.01396400       0.33099200       0.24417500       0.00000000
Bi       0.86725350       7.29844261      12.81498648  T        1       0.01422200       0.00950900       0.00497300       0.01422200       0.00950900       0.00497300       0.00000000
Bi       3.28230924       8.25474667       8.58972042  F        0       0.00000000       0.00000000       0.00000000      -0.00341000      -0.11756500       1.32042600       0.00000000
Te       3.28128323       0.15148672      14.78781387  T        1       0.03095900      -0.02352600       0.01702800       0.03095900      -0.02352600       0.01702800       0.00000000
Te       1.12967676       5.11019781      15.09850206  T        1      -0.00185500      -0.00615200      -0.02981000      -0.00185500      -0.00615200      -0.02981000       0.00000000
Te       0.95128412       1.22132247      10.87547999  F        0       0.00000000       0.00000000       0.00000000       0.04929700      -0.21850500      -0.75481800       0.00000000
Te       3.28230924       5.83138721      10.72422724  F        0       0.00000000       0.00000000       0.00000000       0.10024300       0.21635300      -0.73597300       0.00000000
Tl       3.14736592       2.84654389      12.95301320  T        1       0.00002400       0.03654100      -0.00416300       0.00002400       0.03654100      -0.00416300       0.00000000
Tl       0.95128412       4.05173176       8.85069018  F        0       0.00000000       0.00000000       0.00000000       0.00470100       0.21048700       0.27142200       0.00000000
H        5.30143443       2.90831427      16.82229926  T        2      -0.00908000      -0.01267100       0.01794500      -0.00908000      -0.01267100       0.01794500       0.00000000
C        8.54221723       4.76243836      15.71344625  T        2       0.02557700       0.00491100      -0.01091800       0.02557700       0.00491100      -0.01091800       0.00000000
C        7.41266915       4.50957276      16.16420331  T        2       0.00284900       0.01907100      -0.00393500       0.00284900       0.01907100      -0.00393500       0.00000000
19
Lattice="9.324100494384766 -5.770129841774009e-31 -4.7116686264635655e-15 -1.0684360094250812e-14 8.40602970123291 -0.5219389200210571 -0.0 3.75533920637678e-15 30.6646728515625" Properties=species:S:1:pos:R:3:move_mask:L:1:tags:I:1:DFT_forces:R:3:forces:R:3 DFT_energy=-61.00364917 energy=-61.00364917 pbc="T T T"
Bi       5.71193428       7.37812566      12.72774280  T        1       0.05050800       0.16801900      -0.03907500       0.05050800       0.16801900      -0.03907500
Bi       7.94435973       8.25474667       8.58972042  F        0       0.00000000       0.00000000       0.00000000       0.00000000       0.00000000       0.00000000
Te       8.00869808       0.07386145      14.96225155  T        1      -0.06665600       0.51441900      -0.48575500      -0.06665600       0.51441900      -0.48575500
Te       5.38424566       4.72093323      15.13341894  T        1      -0.30431300       0.05520100       0.85120100      -0.30431300       0.05520100       0.85120100
Te       5.61333484       1.22132247      10.87547999  F        0       0.00000000       0.00000000       0.00000000       0.00000000       0.00000000       0.00000000
Te       7.94435973       5.83138721      10.72422724  F        0       0.00000000       0.00000000       0.00000000       0.00000000       0.00000000       0.00000000
Tl       8.04766749       2.75214405      13.18059376  T        1      -0.03976100       0.07134300      -0.05107600      -0.03976100       0.07134300      -0.05107600
Tl       5.61333484       4.05173176       8.85069018  F        0       0.00000000       0.00000000       0.00000000       0.00000000       0.00000000       0.00000000
Bi       0.98629766       7.28407725      12.82759545  T        1      -0.09774600       0.04532000       0.13398100      -0.09774600       0.04532000       0.13398100
Bi       3.28230924       8.25474667       8.58972042  F        0       0.00000000       0.00000000       0.00000000       0.00000000       0.00000000       0.00000000
Te       3.34839418       0.15284812      14.79815861  T        1      -0.00475000       0.06985800       0.00038500      -0.00475000       0.06985800       0.00038500
Te       0.69735123       5.12000891      15.06840494  T        1       0.20954300       0.05947000       0.25595900       0.20954300       0.05947000       0.25595900
Te       0.95128412       1.22132247      10.87547999  F        0       0.00000000       0.00000000       0.00000000       0.00000000       0.00000000       0.00000000
Te       3.28230924       5.83138721      10.72422724  F        0       0.00000000       0.00000000       0.00000000       0.00000000       0.00000000       0.00000000
Tl       3.22524545       2.76168453      12.93730522  T        1      -0.00407000      -0.01229300      -0.03560400      -0.00407000      -0.01229300      -0.03560400
Tl       0.95128412       4.05173176       8.85069018  F        0       0.00000000       0.00000000       0.00000000       0.00000000       0.00000000       0.00000000
H        5.12661044       4.55587324      16.82142684  T        2      -0.76160200      -0.43642700      -0.26677300      -0.76160200      -0.43642700      -0.26677300
C        8.21875297       5.77340774      15.76851975  T        2      -0.18487800      -0.59113200      -0.16890600      -0.18487800      -0.59113200      -0.16890600
C        6.98905856       5.67143843      15.98471216  T        2       1.18421500       0.00847600      -0.30003600       1.18421500       0.00847600      -0.30003600
19
Lattice="9.324100494384766 -5.770129841774009e-31 -4.7116686264635655e-15 -1.0684360094250812e-14 8.40602970123291 -0.5219389200210571 -0.0 3.75533920637678e-15 30.6646728515625" Properties=species:S:1:pos:R:3:move_mask:L:1:tags:I:1:DFT_forces:R:3:forces:R:3 DFT_energy=-59.00589455 energy=-59.00589455 pbc="T T T"
Bi       5.67242383       7.24783139      12.76539367  T        1      -0.04229900      -0.02895300      -0.04402800      -0.04229900      -0.02895300      -0.04402800
Bi       7.94435973       8.25474667       8.58972042  F        0       0.00000000       0.00000000       0.00000000       0.00000000       0.00000000       0.00000000
Te       8.06465892      -0.35652590      15.34273189  T        1      -0.13797400      -0.11925400       0.01917400      -0.13797400      -0.11925400       0.01917400
Te       5.63553290       4.67070467      14.44452426  T        1       0.02189900      -0.02385400      -0.13336200       0.02189900      -0.02385400      -0.13336200
Te       5.61333484       1.22132247      10.87547999  F        0       0.00000000       0.00000000       0.00000000       0.00000000       0.00000000       0.00000000
Te       7.94435973       5.83138721      10.72422724  F        0       0.00000000       0.00000000       0.00000000       0.00000000       0.00000000       0.00000000
Tl       8.08556551       2.68034063      13.24399980  T        1      -0.00779000       0.21572200       0.00560900      -0.00779000       0.21572200       0.00560900
Tl       5.61333484       4.05173176       8.85069018  F        0       0.00000000       0.00000000       0.00000000       0.00000000       0.00000000       0.00000000
Bi       1.07030171       7.23967755      12.72488911  T        1      -0.06668600      -0.06558300       0.17483400      -0.06668600      -0.06558300       0.17483400
Bi       3.28230924       8.25474667       8.58972042  F        0       0.00000000       0.00000000       0.00000000       0.00000000       0.00000000       0.00000000
Te       3.34679378       0.08333899      14.79278323  T        1      -0.01711300      -0.00655000       0.05256000      -0.01711300      -0.00655000       0.05256000
Te       0.55907201       5.05804495      14.87209015  T        1      -0.28911900      -0.05417100       0.14631400      -0.28911900      -0.05417100       0.14631400
Te       0.95128412       1.22132247      10.87547999  F        0       0.00000000       0.00000000       0.00000000       0.00000000       0.00000000       0.00000000
Te       3.28230924       5.83138721      10.72422724  F        0       0.00000000       0.00000000       0.00000000       0.00000000       0.00000000       0.00000000
Tl       3.23907538       2.77098921      12.97334210  T        1      -0.03343500       0.00333300       0.01451500      -0.03343500       0.00333300       0.01451500
Tl       0.95128412       4.05173176       8.85069018  F        0       0.00000000       0.00000000       0.00000000       0.00000000       0.00000000       0.00000000
H        5.75707458       4.90739973      17.02224283  T        2       0.59889900       0.30453600      -0.06960400       0.59889900       0.30453600      -0.06960400
C        8.36651870       6.22200765      15.90517511  T        2      -0.93520600      -0.37480200       0.01990400      -0.93520600      -0.37480200       0.01990400
C        6.06656241       5.64717041      16.21938193  T        2       0.93554700       0.12037800      -0.23171200       0.93554700       0.12037800      -0.23171200
19
Lattice="9.324100494384766 -5.770129841774009e-31 -4.7116686264635655e-15 -1.0684360094250812e-14 8.40602970123291 -0.5219389200210571 -0.0 3.75533920637678e-15 30.6646728515625" Properties=species:S:1:pos:R:3:move_mask:L:1:tags:I:1:DFT_forces:R:3:forces:R:3 DFT_energy=-58.60893386 energy=-58.60893386 pbc="T T T"
Bi       5.68548052       7.25402509      12.77360972  T        1      -0.06016900      -0.04305600      -0.03586700      -0.06016900      -0.04305600      -0.03586700
Bi       7.94435973       8.25474667       8.58972042  F        0       0.00000000       0.00000000       0.00000000       0.00000000       0.00000000       0.00000000
Te       8.09351890      -0.32845274      15.33905107  T        1       0.02163800      -0.03090200      -0.06457200       0.02163800      -0.03090200      -0.06457200
Te       5.62885258       4.67105750      14.46612780  T        1      -0.00642400      -0.00857800      -0.06102200      -0.00642400      -0.00857800      -0.06102200
Te       5.61333484       1.22132247      10.87547999  F        0       0.00000000       0.00000000       0.00000000       0.00000000       0.00000000       0.00000000
Te       7.94435973       5.83138721      10.72422724  F        0       0.00000000       0.00000000       0.00000000       0.00000000       0.00000000       0.00000000
Tl       8.08710932       2.62804309      13.23980105  T        1       0.00076300       0.15178200      -0.00680800       0.00076300       0.15178200      -0.00680800
Tl       5.61333484       4.05173176       8.85069018  F        0       0.00000000       0.00000000       0.00000000       0.00000000       0.00000000       0.00000000
Bi       1.08316193       7.25633917      12.68972865  T        1      -0.04900200      -0.01203900       0.09459600      -0.04900200      -0.01203900       0.09459600
Bi       3.28230924       8.25474667       8.58972042  F        0       0.00000000       0.00000000       0.00000000       0.00000000       0.00000000       0.00000000
Te       3.35157655       0.08338790      14.78669859  T        1      -0.00557000      -0.00044100       0.03580200      -0.00557000      -0.00044100       0.03580200
Te       0.62078377       5.07543887      14.83784114  T        1      -0.11779500      -0.02224700       0.06037300      -0.11779500      -0.02224700       0.06037300
Te       0.95128412       1.22132247      10.87547999  F        0       0.00000000       0.00000000       0.00000000       0.00000000       0.00000000       0.00000000
Te       3.28230924       5.83138721      10.72422724  F        0       0.00000000       0.00000000       0.00000000       0.00000000       0.00000000       0.00000000
Tl       3.24468584       2.76916601      12.96740677  T        1      -0.01574700       0.00315100       0.01136800      -0.01574700       0.00315100       0.01136800
Tl       0.95128412       4.05173176       8.85069018  F        0       0.00000000       0.00000000       0.00000000       0.00000000       0.00000000       0.00000000
H        5.61832219       4.83902759      17.04160557  T        2       0.28332000       0.11290600      -0.02506600       0.28332000       0.11290600      -0.02506600
C        8.57327611       6.30127301      15.90374913  T        2      -0.43674100      -0.21371600      -0.01410400      -0.43674100      -0.21371600      -0.01410400
C        5.86180232       5.62566918      16.26949693  T        2       0.37913300       0.04844200      -0.08450500       0.37913300       0.04844200      -0.08450500
19
Lattice="9.324100494384766 -5.770129841774009e-31 -4.7116686264635655e-15 -1.0684360094250812e-14 8.40602970123291 -0.5219389200210571 -0.0 3.75533920637678e-15 30.6646728515625" Properties=species:S:1:pos:R:3:move_mask:L:1:tags:I:1:DFT_forces:R:3:forces:R:3 DFT_energy=-58.44282835 energy=-58.44282835 pbc="T T T"
Bi       5.71320787       7.26684729      12.78549870  T        1      -0.05911800      -0.04477300      -0.03004800      -0.05911800      -0.04477300      -0.03004800
Bi       7.94435973       8.25474667       8.58972042  F        0       0.00000000       0.00000000       0.00000000       0.00000000       0.00000000       0.00000000
Te       8.08244379      -0.30947584      15.37418859  T        1       0.12411800      -0.00319200      -0.13302000       0.12411800      -0.00319200      -0.13302000
Te       5.62632207       4.67339593      14.48560023  T        1      -0.00027700       0.00784700      -0.02735400      -0.00027700       0.00784700      -0.02735400
Te       5.61333484       1.22132247      10.87547999  F        0       0.00000000       0.00000000       0.00000000       0.00000000       0.00000000       0.00000000
Te       7.94435973       5.83138721      10.72422724  F        0       0.00000000       0.00000000       0.00000000       0.00000000       0.00000000       0.00000000
Tl       8.08697517       2.56118265      13.24254148  T        1       0.00742800       0.10256700      -0.00950000       0.00742800       0.10256700      -0.00950000
Tl       5.61333484       4.05173176       8.85069018  F        0       0.00000000       0.00000000       0.00000000       0.00000000       0.00000000       0.00000000
Bi       1.10533884       7.25798105      12.65157622  T        1      -0.05604200       0.01371200       0.06451800      -0.05604200       0.01371200       0.06451800
Bi       3.28230924       8.25474667       8.58972042  F        0       0.00000000       0.00000000       0.00000000       0.00000000       0.00000000       0.00000000
Te       3.35695723       0.08044732      14.77363904  T        1      -0.00435600       0.01044700       0.02203400      -0.00435600       0.01044700       0.02203400
Te       0.66855283       5.09301786      14.81444355  T        1      -0.02581800      -0.01076400       0.03258400      -0.02581800      -0.01076400       0.03258400
Te       0.95128412       1.22132247      10.87547999  F        0       0.00000000       0.00000000       0.00000000       0.00000000       0.00000000       0.00000000
Te       3.28230924       5.83138721      10.72422724  F        0       0.00000000       0.00000000       0.00000000       0.00000000       0.00000000       0.00000000
Tl       3.25234039       2.76482545      12.96055688  T        1      -0.01522700       0.00587600       0.00856000      -0.01522700       0.00587600       0.00856000
Tl       0.95128412       4.05173176       8.85069018  F        0       0.00000000       0.00000000       0.00000000       0.00000000       0.00000000       0.00000000
H        5.49784439       4.79104458      17.04924867  T        2       0.11677600       0.02315500       0.01613800       0.11677600       0.02315500       0.01613800
C        8.75656940       6.38637379      15.91588141  T        2      -0.22501100      -0.16728500       0.01414000      -0.22501100      -0.16728500       0.01414000
C        5.70448611       5.60407777      16.29961744  T        2       0.15058300       0.02607300      -0.04420000       0.15058300       0.02607300      -0.04420000
19
Lattice="9.324100494384766 -5.770129841774009e-31 -4.7116686264635655e-15 -1.0684360094250812e-14 8.40602970123291 -0.5219389200210571 -0.0 3.75533920637678e-15 30.6646728515625" Properties=species:S:1:pos:R:3:move_mask:L:1:tags:I:1:DFT_forces:R:3:forces:R:3 DFT_energy=-58.35503855 energy=-58.35503855 pbc="T T T"
Bi       5.75002635       7.28240513      12.80114027  T        1      -0.02639400      -0.02594200      -0.00891300      -0.02639400      -0.02594200      -0.00891300
Bi       7.94435973       8.25474667       8.58972042  F        0       0.00000000       0.00000000       0.00000000       0.00000000       0.00000000       0.00000000
Te       8.00170340      -0.29157310      15.46132171  T        1       0.11661800      -0.00564500      -0.10246700       0.11661800      -0.00564500      -0.10246700
Te       5.62660925       4.67056278      14.49227310  T        1      -0.00144700      -0.00403400      -0.01616100      -0.00144700      -0.00403400      -0.01616100
Te       5.61333484       1.22132247      10.87547999  F        0       0.00000000       0.00000000       0.00000000       0.00000000       0.00000000       0.00000000
Te       7.94435973       5.83138721      10.72422724  F        0       0.00000000       0.00000000       0.00000000       0.00000000       0.00000000       0.00000000
Tl       8.08642820       2.49956549      13.25524473  T        1       0.01419400       0.04071900      -0.01383400       0.01419400       0.04071900      -0.01383400
Tl       5.61333484       4.05173176       8.85069018  F        0       0.00000000       0.00000000       0.00000000       0.00000000       0.00000000       0.00000000
Bi       1.13903672       7.24243841      12.61314129  T        1      -0.03990800       0.02121100       0.03205900      -0.03990800       0.02121100       0.03205900
Bi       3.28230924       8.25474667       8.58972042  F        0       0.00000000       0.00000000       0.00000000       0.00000000       0.00000000       0.00000000
Te       3.36249066       0.07437576      14.76223400  T        1      -0.00024000      -0.00713300       0.00341600      -0.00024000      -0.00713300       0.00341600
Te       0.67622657       5.10042746      14.80478369  T        1      -0.00979900       0.01264000      -0.00981100      -0.00979900       0.01264000      -0.00981100
Te       0.95128412       1.22132247      10.87547999  F        0       0.00000000       0.00000000       0.00000000       0.00000000       0.00000000       0.00000000
Te       3.28230924       5.83138721      10.72422724  F        0       0.00000000       0.00000000       0.00000000       0.00000000       0.00000000       0.00000000
Tl       3.26104138       2.75465059      12.95128403  T        1      -0.00811000       0.00061100       0.00671900      -0.00811000       0.00061100       0.00671900
Tl       0.95128412       4.05173176       8.85069018  F        0       0.00000000       0.00000000       0.00000000       0.00000000       0.00000000       0.00000000
H        5.42549122       4.76250532      17.05183545  T        2       0.04976000       0.01851100      -0.02302200       0.04976000       0.01851100      -0.02302200
C        8.91606318       6.48767254      15.91412934  T        2      -0.11419300      -0.08364600       0.03413100      -0.11419300      -0.08364600       0.03413100
C        5.60647952       5.58459126      16.30534611  T        2       0.06311000      -0.00466100       0.03669100       0.06311000      -0.00466100       0.03669100
19
Lattice="9.324100494384766 -5.770129841774009e-31 -4.7116686264635655e-15 -1.0684360094250812e-14 8.40602970123291 -0.5219389200210571 -0.0 3.75533920637678e-15 30.6646728515625" Properties=species:S:1:pos:R:3:move_mask:L:1:tags:I:1:DFT_forces:R:3:forces:R:3 DFT_energy=-58.32306807 energy=-58.32306807 pbc="T T T"
Bi       5.77780446       7.29531590      12.81831153  T        1      -0.00291500      -0.00190100      -0.01413000      -0.00291500      -0.00190100      -0.01413000
Bi       7.94435973       8.25474667       8.58972042  F        0       0.00000000       0.00000000       0.00000000       0.00000000       0.00000000       0.00000000
Te       7.88694104      -0.30625907      15.58211047  T        1      -0.00404900       0.02057400       0.00247900      -0.00404900       0.02057400       0.00247900
Te       5.62311560       4.67524524      14.49536697  T        1       0.00539400      -0.00271800      -0.00050000       0.00539400      -0.00271800      -0.00050000
Te       5.61333484       1.22132247      10.87547999  F        0       0.00000000       0.00000000       0.00000000       0.00000000       0.00000000       0.00000000
Te       7.94435973       5.83138721      10.72422724  F        0       0.00000000       0.00000000       0.00000000       0.00000000       0.00000000       0.00000000
Tl       8.08121398       2.45168904      13.27485414  T        1       0.00126100      -0.00666200       0.00431300       0.00126100      -0.00666200       0.00431300
Tl       5.61333484       4.05173176       8.85069018  F        0       0.00000000       0.00000000       0.00000000       0.00000000       0.00000000       0.00000000
Bi       1.18907041       7.22142321      12.57696158  T        1       0.00461800      -0.00452700      -0.01184400       0.00461800      -0.00452700      -0.01184400
Bi       3.28230924       8.25474667       8.58972042  F        0       0.00000000       0.00000000       0.00000000       0.00000000       0.00000000       0.00000000
Te       3.36704357       0.07175866      14.75933526  T        1       0.00195200      -0.00639300       0.00187500       0.00195200      -0.00639300       0.00187500
Te       0.66816662       5.10032232      14.80345693  T        1       0.01672300      -0.00337700      -0.01495200       0.01672300      -0.00337700      -0.01495200
Te       0.95128412       1.22132247      10.87547999  F        0       0.00000000       0.00000000       0.00000000       0.00000000       0.00000000       0.00000000
Te       3.28230924       5.83138721      10.72422724  F        0       0.00000000       0.00000000       0.00000000       0.00000000       0.00000000       0.00000000
Tl       3.26951169       2.74684188      12.94383782  T        1      -0.00255200      -0.01181100       0.00009100      -0.00255200      -0.01181100       0.00009100
Tl       0.95128412       4.05173176       8.85069018  F        0       0.00000000       0.00000000       0.00000000       0.00000000       0.00000000       0.00000000
H        5.37580331       4.74553085      17.04739204  T        2       0.01578100      -0.00387300      -0.00905200       0.01578100      -0.00387300      -0.00905200
C        9.05259729       6.59901694      15.86767977  T        2       0.00936900      -0.00811000       0.01212800       0.00936900      -0.00811000       0.01212800
C        5.53383935       5.57910883      16.30942751  T        2      -0.00198700      -0.00351000       0.01597700      -0.00198700      -0.00351000       0.01597700
19
Lattice="9.324100494384766 -5.770129841774009e-31 -4.7116686264635655e-15 -1.0684360094250812e-14 8.40602970123291 -0.5219389200210571 -0.0 3.75533920637678e-15 30.6646728515625" Properties=species:S:1:pos:R:3:move_mask:L:1:tags:I:1:DFT_forces:R:3:forces:R:3 DFT_energy=-58.3742463 energy=-58.3742463 pbc="T T T"
Bi       5.72369475       7.26667341      12.84916379  T        1      -0.01723200      -0.00626900       0.00979700      -0.01723200      -0.00626900       0.00979700
Bi       7.94435973       8.25474667       8.58972042  F        0       0.00000000       0.00000000       0.00000000       0.00000000       0.00000000       0.00000000
Te       7.66033724      -0.33127456      15.71620107  T        1      -0.11188200      -0.01809300       0.06944400      -0.11188200      -0.01809300       0.06944400
Te       5.62211060       4.65155887      14.50878201  T        1       0.01001800      -0.01876800       0.00069900       0.01001800      -0.01876800       0.00069900
Te       5.61333484       1.22132247      10.87547999  F        0       0.00000000       0.00000000       0.00000000       0.00000000       0.00000000       0.00000000
Te       7.94435973       5.83138721      10.72422724  F        0       0.00000000       0.00000000       0.00000000       0.00000000       0.00000000       0.00000000
Tl       8.10750739       2.31857680      13.35596635  T        1       0.01548600      -0.05711500       0.04213100       0.01548600      -0.05711500       0.04213100
Tl       5.61333484       4.05173176       8.85069018  F        0       0.00000000       0.00000000       0.00000000       0.00000000       0.00000000       0.00000000
Bi       1.22407517       7.19778648      12.63699174  T        1       0.01332500      -0.01480400       0.02977600       0.01332500      -0.01480400       0.02977600
Bi       3.28230924       8.25474667       8.58972042  F        0       0.00000000       0.00000000       0.00000000       0.00000000       0.00000000       0.00000000
Te       3.36220986       0.06124332      14.81495254  T        1      -0.00032900      -0.01187500       0.02149900      -0.00032900      -0.01187500       0.02149900
Te       0.55827391       5.06861413      14.75850178  T        1      -0.06082600      -0.02612800      -0.02634600      -0.06082600      -0.02612800      -0.02634600
Te       0.95128412       1.22132247      10.87547999  F        0       0.00000000       0.00000000       0.00000000       0.00000000       0.00000000       0.00000000
Te       3.28230924       5.83138721      10.72422724  F        0       0.00000000       0.00000000       0.00000000       0.00000000       0.00000000       0.00000000
Tl       3.26502513       2.71774748      12.93884931  T        1      -0.00425300      -0.02343000      -0.00126400      -0.00425300      -0.02343000      -0.00126400
Tl       0.95128412       4.05173176       8.85069018  F        0       0.00000000       0.00000000       0.00000000       0.00000000       0.00000000       0.00000000
H        5.39746752       4.77842001      17.05809148  T        2       0.01917700       0.01453300       0.00663700       0.01917700       0.01453300       0.00663700
C        9.20065251       6.82164691      15.63491016  T        2       0.06495000       0.09349300      -0.10340100       0.06495000       0.09349300      -0.10340100
C        5.50938584       5.60107398      16.29919021  T        2      -0.00316500       0.01197000       0.00079100      -0.00316500       0.01197000       0.00079100
19
Lattice="9.324100494384766 -5.770129841774009e-31 -4.7116686264635655e-15 -1.0684360094250812e-14 8.40602970123291 -0.5219389200210571 -0.0 3.75533920637678e-15 30.6646728515625" Properties=species:S:1:pos:R:3:move_mask:L:1:tags:I:1:DFT_forces:R:3:forces:R:3 DFT_energy=-58.78745231 energy=-58.78745231 pbc="T T T"
Bi       5.67944818       7.25030370      12.85880482  T        1      -0.06419100      -0.02861700       0.01951500      -0.06419100      -0.02861700       0.01951500
Bi       7.94435973       8.25474667       8.58972042  F        0       0.00000000       0.00000000       0.00000000       0.00000000       0.00000000       0.00000000
Te       7.53984296      -0.33060062      15.74972437  T        1      -0.18636900      -0.00889700       0.06814000      -0.18636900      -0.00889700       0.06814000
Te       5.61516023       4.63039253      14.50844726  T        1      -0.02256300      -0.02401000       0.02435300      -0.02256300      -0.02401000       0.02435300
Te       5.61333484       1.22132247      10.87547999  F        0       0.00000000       0.00000000       0.00000000       0.00000000       0.00000000       0.00000000
Te       7.94435973       5.83138721      10.72422724  F        0       0.00000000       0.00000000       0.00000000       0.00000000       0.00000000       0.00000000
Tl       8.11000092       2.23886855      13.41024730  T        1       0.00735700      -0.11170900       0.10446900       0.00735700      -0.11170900       0.10446900