339
Lattice="14.653976132640961 0.0 0.0 0.0 14.653976132640961 0.0 0.0 0.0 14.653976132640961" Properties=species:S:1:pos:R:3:momenta:R:3:masses:R:1:forces:R:3 total_charge=0 exec_time=1758997627.7455804 step=40000 time_fs=79799.999999925 time_ps=79.799999999925 charge=0 spin=5 Nmols=115 Comp=---UNK_Cl(2):UNK_Fe(1):UNK_H2O(112) units="_JSON {\"energy\": \"eV\", \"forces\": \"ev/Ang\", \"stress\": \"ev/Ang^3\", \"time\": \"fs\", \"real_time\": \"s\", \"temperature\": \"K\", \"pressure\": \"GPa\", \"density\": \"g/cm^3\", \"momenta\": \"(eV*u)^0.5\", \"target_temperature\": \"K\"}" time=19999.999999985655 density=1.1316014953983986 temperature=311.2362304925718 target_temperature=300 config_type=md energy=-1669.3258681112495 stress="-0.0024759978987276554 0.0013459925539791584 -0.0005026559811085463 0.0013459925539791584 -0.0002117040567100048 -0.0036345808766782284 -0.0005026559811085463 -0.0036345808766782284 -0.0015533273108303547" pbc="T T T"
Fe       7.03594970      12.77546447      10.48987774       0.40635039       2.83616545      -1.94849549      55.84500000      -0.53455859      -0.15604883      -0.10380957
Cl      10.34581929      11.21221613       2.43601140       1.72837566      -0.81950394      -1.06409014      35.45000000      -0.13846107       0.09757968       0.05453793
Cl       2.98495164       2.18861699       8.85193424       0.13509128       0.04038346       1.13125619      35.45000000       0.20903677       0.06147720       0.24753672
O        3.49269215       9.75903335       6.39915911      -0.78008373       0.83640620       1.27538047      15.99900000      -0.07493977       0.15984516       0.59301502
H        2.74755021      10.15588272       5.87573205      -0.20849707       0.08913621       0.07636867       1.00800000       0.07505612      -0.25376368      -0.57296699
H        3.69729494       8.86819231       6.00306122       0.02080326      -0.10853801      -0.32525208       1.00800000      -0.22517946       1.04158771       0.03617309
O        5.07366130       8.27752441      13.10570300       1.68036538      -0.38360540      -0.27680838      15.99900000      -0.42504975      -1.25496471       0.59767628
H        4.60117139       7.50716324      13.61898889       0.06791283       0.15986759      -0.02063664       1.00800000       0.40587804       0.74239671      -0.24459456
H        4.42197885       8.60343513      12.40983638       0.17873560      -0.05687092      -0.29478354       1.00800000       0.34582934       0.30636775      -0.08883183
O        5.91748790      10.10205315       0.03502349       0.00186134       0.31516868       0.41878475      15.99900000       0.05883685       0.01294495       0.62363100
H        5.56606575       9.39827425      -0.58903245       0.09470410       0.10047424       0.02576533       1.00800000      -0.10527026      -0.05709542      -0.46570447
H        6.17671210       9.51750189       0.83535126      -0.19358825      -0.03599396       0.11625567       1.00800000      -0.07199020       0.08949212      -0.17962801
O        8.91643376       3.60839012      12.84958162      -0.38521724      -0.08222337      -0.34792579      15.99900000       0.87861532      -0.14331022      -0.28201982
H        8.08634982       3.85818544      12.38414285      -0.07463574       0.00905293      -0.16817157       1.00800000      -0.15792307       0.29682124      -0.31623033
H        9.67885330       3.90971912      12.26568928      -0.01788030      -0.05530750       0.03493999       1.00800000      -0.75636065      -0.45190412       0.39517352
O        8.52079853       1.31713598       7.36326336       0.64214769       0.32714971      -0.74473381      15.99900000      -1.59750473      -0.33132568       1.07588863
H        7.46639469       1.27516952       7.55089387       0.19444585      -0.06813974      -0.02643706       1.00800000       1.38402939       0.70152479       0.19598252
H        8.63363930       0.52037506       6.77265757      -0.10688492       0.17765066       0.02105527       1.00800000       0.31381994       0.36806479      -0.72009563
O       10.79933244       3.96243505       5.01091153      -0.22536655      -0.55276346      -0.28628229      15.99900000       0.39006498       0.07100920       0.25221306
H       11.66576580       3.99381372       5.58499926      -0.10179264      -0.18833724      -0.06421771       1.00800000      -0.96297646       0.22899963      -0.74649835
H       10.03527008       4.35668923       5.50255599       0.17849146      -0.15984510       0.08335618       1.00800000       0.74099505      -0.29387182      -0.03854344
O        4.41914555      12.20993158      14.31368707       0.43182652      -0.48663682       0.90413972      15.99900000       0.51812392       0.73567092      -0.48959485
H        4.96541290      11.43086119      14.57896218      -0.09048063      -0.09584572       0.28137444       1.00800000       0.36426923      -0.30900359       0.38800162
H        3.55517516      12.08786445      14.73994905      -0.31166671       0.41508672      -0.08656868       1.00800000      -0.99157739      -0.07211967       0.17209083
O        3.05054781       4.57308370       7.09390926       0.66853895       0.29802635      -0.76964421      15.99900000      -0.45075002       0.38885996       0.03173972
H        2.78243252       3.82911261       7.69274707       0.22513517      -0.02234451       0.04158631       1.00800000       0.19674705      -0.09002633       0.06793236
H        2.58133617       5.39181263       7.40666418       0.19648347      -0.12259383       0.16596016       1.00800000      -0.20161615      -0.26145101      -0.04589213
O        0.77163392      12.81962369      12.37514402       0.13756873       0.44198836       0.43310240      15.99900000      -0.75711280      -0.68033880       0.93710226
H        1.57172833      13.04643763      11.87591327      -0.28816647       0.47188821      -0.22648122       1.00800000       1.02797437       0.42282462      -0.41957265
H        1.06053062      12.52403654      13.28121889      -0.25822347       0.20660574       0.09920274       1.00800000      -0.10487898       0.09175343      -0.36539227
O        4.92168530       4.54668922       5.31063505      -0.86687714      -0.32208179      -0.30230514      15.99900000      -0.23406374       1.36165202      -0.34664172
H        4.75690763       5.53085901       5.12338639      -0.02139822      -0.13432168       0.06086634       1.00800000       0.18362182      -1.20347559      -0.22011249
H        4.25661666       4.46014906       6.04667845       0.01574575      -0.13019242      -0.37512768       1.00800000      -0.03989461      -0.02146158       0.88300651
O       12.65706101      11.75377732      13.05104737      -0.87471316      -0.30982514       0.72611705      15.99900000       0.22809915      -0.65384328       1.65551496
H       12.89290659      10.82746296      13.50571942       0.02919862      -0.18586555       0.06233956       1.00800000      -0.49384013       1.53976607      -1.09754753
H       12.50327651      12.37860524      13.82905421       0.24811373       0.13520822       0.12746675       1.00800000      -0.00229487      -0.50458193      -0.91912425
O       12.52401994      12.98604411       5.85335797      -0.55489842      -0.53420777      -0.27275888      15.99900000       1.26617432       1.61381507       0.21433866
H       13.09023618      12.36021913       6.41196124      -0.04125855      -0.02326593      -0.02904988       1.00800000      -0.41497761      -0.11720295       0.40956181
H       12.95810179      13.90506442       5.83230975      -0.12388436       0.25953804      -0.39895530       1.00800000      -0.69813818      -0.88570029      -0.20051143
O       10.19668968      12.19276104       5.51127292       0.63219913       0.85029232      -0.16026440      15.99900000      -0.36568832       0.55497801       1.23470116
H       11.10584141      12.62742713       5.62895005      -0.05242310       0.07326665      -0.00369138       1.00800000       0.19914918      -0.30976236       0.03787803
H       10.16589988      11.81511594       4.63133840      -0.01989636       0.04329704       0.14017776       1.00800000      -0.05367800      -0.52969205      -1.27450824
O       13.45425482      10.99977507       7.26295708      -0.01064755      -0.80719785      -0.30964554      15.99900000       1.47429502      -0.40391156       0.03426089
H       12.89938993      10.75888951       8.07122857      -0.04176632       0.10229082       0.12181787       1.00800000      -0.12077822       0.39613718      -0.04808129
H       14.41295031      10.83658822       7.54286972       0.02990157      -0.13555271       0.16039530       1.00800000      -0.95879716       0.07886545      -0.34168765
O        7.26477027       2.50857393       2.97109803      -0.46869000      -0.11243073       0.42118727      15.99900000       0.34896618       1.07096672       0.21783732
H        8.14381907       2.23677209       2.61046797      -0.02756267       0.03044900      -0.31515401       1.00800000       1.09758544       0.34265867      -0.60361314
H        6.81900272       1.66934370       3.03031508      -0.02542391      -0.00738697       0.01854850       1.00800000      -1.12838995      -1.14566469       0.60148770
O        7.46120449      10.53599624       3.17315227       0.04915045      -0.72377727      -0.14302472      15.99900000      -1.24447227      -0.25807467       0.45507449
H        7.35845284      10.31234991       4.15307601      -0.20772205       0.04848276       0.22950388       1.00800000       0.44114414       0.04397533      -0.15025981
H        8.37704946      10.75665685       2.90578153      -0.03223420      -0.20871051      -0.31893741       1.00800000       0.67184669       0.27271998       0.21661672
O       10.16401370       5.23836427       8.33467223       0.18659810       0.74529185      -0.29820620      15.99900000       1.10729802       1.16229165       1.54212880
H        9.68170180       4.68108829       7.71803414      -0.10221232      -0.15033626      -0.06893398       1.00800000      -0.69947183      -0.38432240      -0.97517794
H       10.93006771       5.68804788       7.88009571      -0.06306474      -0.13548891      -0.10807839       1.00800000      -0.20133828      -0.17016622       0.08168101
O       10.01848702       4.33541320      15.29064279      -1.19562649       0.69029137      -0.69425562      15.99900000       1.04922819      -0.58213818       0.62088650
H        9.35297480       4.55644916      14.62100205      -0.21228229       0.26911177      -0.09566073       1.00800000      -0.46417838       0.15318701      -0.51194727
H       10.26640525       5.15931200      15.76506035       0.00524813       0.16072236      -0.15096276       1.00800000      -0.34947342       0.47327504      -0.19582093
O        1.58064453      13.27186180       8.26507331      -0.52527618      -0.23665180       0.57314116      15.99900000      -0.31583637       1.11109626      -0.21214207
H        1.16692624      14.04389063       8.76144936       0.09017140       0.08018542      -0.06078371       1.00800000      -0.19004759      -0.42309073       0.17026208
H        1.59681229      13.69365877       7.34838081      -0.00894617       0.07700897       0.08963341       1.00800000       0.59130412      -0.62053740       0.10878436
O        5.44709229       6.67304299       7.78075783      -0.37783484       0.18874952       0.12169999      15.99900000      -0.82918239       1.19191885       0.09265430
H        4.62050171       6.95737811       8.34758120       0.14451768       0.15160274       0.02268360       1.00800000       0.78026026      -0.08915212      -0.33347985
H        5.61746850       5.78489670       8.14608360       0.34003323       0.17095648       0.11625473       1.00800000       0.46724397      -0.88850057      -0.13594717
O        9.68091156       8.38837975       5.84256885      -0.25090332       0.97588898       0.18566395      15.99900000      -0.32957339      -0.14037159      -0.53060156
H        9.35722046       8.10461435       6.72828902       0.00275078      -0.12005614       0.11997833       1.00800000       0.03081677      -0.05110392       0.56277448
H        9.41393229       7.65241370       5.23561453      -0.42556955       0.16340314      -0.02533441       1.00800000      -0.00201550       0.56405693      -0.19447212
O       13.40265863       0.34347567       1.99377276       1.91712942      -0.90389504      -0.61730409      15.99900000       0.29423544       1.35066247      -1.18503106
H       13.89227449       1.16370377       1.52971658       0.06280946      -0.07398648       0.10458714       1.00800000      -0.26041570      -1.32910383       0.95535707
H       12.74649397      -0.02864674       1.32063226      -0.21925740       0.00518902       0.01099040       1.00800000       0.02067769       0.00796946       0.63127875
O        9.07462894      15.39970477      12.38747393      -0.39479399       0.76911156      -0.47570530      15.99900000       1.51642120       0.00532790      -0.48181036
H        9.95138264      15.36915125      11.80345687      -0.12593013       0.01553069       0.15136716       1.00800000      -0.94596940      -0.21824765       0.75079578
H        8.92420189      16.35636898      12.54687457      -0.19292109       0.03549821      -0.24416904       1.00800000       0.06228523       0.58141840       0.27043933
O        4.09472750       7.33172479       5.24833975       0.61935406      -0.43035582      -1.17115119      15.99900000       1.33302104       0.23222502      -0.22661336
H        4.63882982       7.38171329       6.06506951      -0.38094973      -0.13143822      -0.03483921       1.00800000       0.27284855      -0.57165301       0.37363970
H        3.17574777       7.19746575       5.47973192      -0.20196619      -0.29640537      -0.15765996       1.00800000      -1.55450499      -0.35345519       0.24373002
O        1.30564882       4.54735858       2.44249911      -1.00118234       0.01765394       0.58861806      15.99900000      -0.52428418      -0.51935828      -0.64438361
H        1.11573686       3.58850363       2.22133175      -0.11456424       0.02252402       0.09460227       1.00800000       0.10567856       0.46535251       0.19354944
H        0.60953833       5.00519382       1.81695114      -0.15458139      -0.32729365      -0.05361943       1.00800000       0.53463519      -0.12938169       0.46387330
O       11.80454365      10.74444461       9.20209284      -0.50811774       0.83995180       0.01111012      15.99900000      -0.20369071      -2.14320469      -0.88792717
H       11.57371575       9.86893597       9.67739819      -0.03586409      -0.25743996       0.09935325       1.00800000       0.32984376       0.79617840      -0.26844355
H       11.65010280      11.47775656       9.79357639      -0.16156930       0.06884027      -0.20563725       1.00800000      -0.34496325       1.00891602       1.29406595
O        8.50478021       6.97387683       3.53610026      -0.59537686      -0.26956114       0.40840917      15.99900000       0.77449095      -0.25393793       0.41027319
H        8.12339520       6.11149107       3.86387860      -0.03617983      -0.05080697       0.05816296       1.00800000      -0.33615851       0.39374265      -0.30110660
H        7.84525700       7.54819652       3.09560525      -0.19016940       0.24653617       0.20450139       1.00800000      -0.55723214      -0.27581754      -0.00618873
O        5.34951172      -2.78229495       6.83135374      -0.45591238       0.02735908      -0.05758630      15.99900000       1.18526983       1.08726764      -0.20268029
H        5.38809877      -2.51907378       5.87204557       0.01281300       0.31396104       0.05902601       1.00800000      -0.63801551      -0.23386009       0.13904969
H        4.68291715      -3.46765442       6.94728783       0.04125060       0.16083963       0.34357346       1.00800000      -0.79672551      -0.75330383      -0.39353427
O        8.78059572      -0.26981531       5.36466887       0.85881286       0.23772338       0.91185901      15.99900000      -0.19318089      -0.30457434      -0.13224679
H        9.37105378       0.35091760       4.82564332       0.29582896      -0.24564194      -0.36332623       1.00800000       0.25804466       0.03642080       0.30216470
H        9.33300953      -1.09299921       5.57293283       0.05453921      -0.23446733      -0.39930578       1.00800000      -0.35680589       0.13081604      -0.75692815
O       10.09273144       9.12696314      14.50529205       0.84092078      -0.71821695      -0.68296031      15.99900000       2.70372891      -1.67432463       1.88381410
H        9.75949771       9.77761329      15.09574149       0.37073471       0.03772772      -0.02190914       1.00800000      -0.83794606       1.77582216       1.04407096
H        9.63424433       9.14726602      13.68341800       0.02644977      -0.09956461      -0.05160657       1.00800000      -1.24881029       0.16849597      -2.24099159
O       13.12858721      15.61901127       4.79034149      -0.15260116      -1.12827926      -0.77799985      15.99900000      -0.47963235      -1.07442641      -1.40725493
H       13.31164427      15.16789518       3.88048198       0.15346323       0.00405305       0.31106247       1.00800000       0.04126206       0.88050687       1.05412185
H       12.13033746      15.72649483       4.66836063       0.10193153       0.02166914       0.25126951       1.00800000       0.52290922       0.24461293       0.21373273
O        4.74037700       2.31098464      14.63037441      -0.29101282       0.69119938      -0.68845941      15.99900000       0.21612905       0.34515136       0.91782862
H        4.06165881       1.99738123      15.30955435       0.00882279       0.13054093       0.19105524       1.00800000      -0.30127302      -0.07097727      -0.45602044
H        5.37936497       2.75499124      15.28771071       0.22679387      -0.07504352      -0.17279063       1.00800000      -0.23735397       0.23159119      -1.07203436
O       14.44173429       8.33143169      11.80557354      -0.63835216      -1.41814030      -1.02306749      15.99900000      -0.05134775      -2.11564946       0.02113108
H       15.06511478       9.01147422      11.55378996       0.00331167      -0.05922350      -0.25012596       1.00800000       0.97335207       1.41809833      -0.76280630
H       13.85424692       8.75024283      12.43322537       0.11206084      -0.13439521      -0.03888783       1.00800000      -1.01914847       0.51057810       0.75206333
O        1.48802340       6.80561904       7.99041444       0.51974023       0.52697775       0.70541444      15.99900000       0.80902684       0.98272908      -1.60958517
H        0.67209272       6.72801606       8.53808783      -0.18909631       0.09944205      -0.18155101       1.00800000      -0.55783951       0.00173762       0.38526568
H        1.27227618       7.36100287       7.14298168      -0.19753460      -0.07518982      -0.09993329       1.00800000       0.04406078      -0.93495256       0.88227588
O        4.75149070      15.63232121       5.74577678       0.64948700      -0.70384795       0.01806404      15.99900000       1.60753787      -1.34044719       0.56603426
H        5.55867818      15.50417259       5.17588148       0.07436536       0.05561579      -0.28176612       1.00800000      -0.14338483      -0.51660395       0.24107330
H        4.25018579      16.20181545       5.15343778       0.16119448       0.11970320       0.20360682       1.00800000      -1.24765265       1.15488458      -0.67258614
O       13.56935557       4.12259328      10.19045509       1.53076858      -0.32267490       0.30648390      15.99900000      -2.04624295      -0.06392545      -2.77314806
H       13.76798836       3.72617975       9.25487218      -0.07581409      -0.11389621      -0.03372448       1.00800000      -0.52153844       0.21691309       1.04522657
H       14.39613911       4.09537707      10.63858790       0.09736038       0.01582596      -0.30519948       1.00800000       2.34237885      -0.44932231       1.76045322
O        1.85515514      11.82869920      15.00542485       0.18626702      -0.27622211       0.00043782      15.99900000      -0.26399150      -0.69523901       0.37432832
H        1.80102427      10.93731549      15.42239015      -0.16591429       0.25702735       0.12814857       1.00800000       0.53289068      -0.41561061      -0.49139696
H        1.28743193      12.26755846      15.69921891      -0.09681976       0.22048752       0.40615780       1.00800000      -0.40272865       1.10371137      -0.13661686
O        2.92258928      13.37966532      10.85694803      -0.62208335      -0.64576337      -0.24369074      15.99900000       0.29265839      -0.13551025       1.18738592
H        2.72931014      13.30228671       9.90927985       0.02058337       0.07951580       0.16378658       1.00800000       0.09011109       0.40916172      -0.71402615
H        3.15056937      14.30888377      11.14804568       0.23301019       0.10956382      -0.05534246       1.00800000      -0.32294384      -0.11634068      -0.44902948
O       12.26849639       8.70590381       5.87524501       0.75184283      -0.08284168      -0.08578044      15.99900000       1.57936466       1.20281899      -0.15423782
H       11.28517178       8.80817150       5.96113002      -0.20547957      -0.02724556      -0.04994760       1.00800000      -0.42266929      -0.00870138      -0.09699708
H       12.74235403       9.61533903       5.95058507       0.04906811       0.13813148       0.16653169       1.00800000      -0.87266076      -1.42967844       0.44437873
O        6.55000558      14.69538353       3.88578742      -1.12439264       0.22698308      -0.72452050      15.99900000       0.61277884      -0.45797119       0.58816111
H        5.95001916      13.87804259       3.97832078       0.26226637      -0.11784288      -0.20613416       1.00800000       0.87951326       0.21136247      -0.02009273
H        7.48257947      14.49885960       4.32706516      -0.07190266      -0.21997916      -0.15298052       1.00800000      -1.31783807      -0.14515792      -0.04560217
O        3.07272177      -1.08088087       3.03197456      -0.15524442      -0.36078393       0.36531646      15.99900000      -1.43589592      -0.98850310      -1.96251059
H        2.10587512      -1.38063306       2.72652277       0.01549073       0.26532472       0.17789584       1.00800000       1.71484506       0.71829480       1.10365260
H        3.01123172      -0.69123073       3.90496395       0.11003063       0.26470680      -0.13031319       1.00800000      -0.79071569       0.19429876       0.93160665
O        3.88058537       9.42138489      11.20503575      -0.76668557       0.09120811      -0.28681398      15.99900000      -1.12563241       1.99206853      -0.59202784
H        2.90810640       9.73627313      11.26634549      -0.23357088       0.07538187       0.09800910       1.00800000       0.51122642      -0.48424244      -0.12043110
H        4.31569928      10.35145166      11.10468688       0.08508931       0.06727267      -0.18557159       1.00800000       0.07516053      -1.19966841       0.24150248
O        4.29292533       7.92275420       2.62326374       2.07547768      -0.08274944       0.13621426      15.99900000      -0.24000832      -0.56601673       1.22384489
H        4.32748525       7.98351700       3.62694186       0.25869815       0.13347863       0.09271537       1.00800000       0.02012319       0.40837547      -0.66398561
H        4.00532027       6.95573534       2.61107728      -0.09458086      -0.03511363       0.18203273       1.00800000       0.30249125      -0.23893036      -0.66650164
O        5.92682692       1.52361591       8.03394397      -0.15572433      -0.69326962      -0.55563892      15.99900000       1.13808060       0.08909704       0.88594735
H        5.89106379       2.49910891       8.26062426      -0.02597472      -0.07575605      -0.07648446       1.00800000       0.06338313      -0.26077366       0.13648629
H        5.53051173       1.44112872       7.15303514      -0.00458149      -0.04508468       0.13005217       1.00800000      -1.04919446      -0.16179527      -0.91218340
O       14.00726549       6.69570850       9.54666102       1.14244399      -0.04352197       0.33788512      15.99900000      -0.01669034      -1.22408164       1.74768829
H       14.20681011       7.22975903      10.37768683       0.01828561      -0.40353256      -0.09570197       1.00800000      -0.35760128       0.11346225      -0.56318867
H       13.82591425       5.73758430       9.96276412       0.11170950      -0.08618941       0.09785402       1.00800000       0.04664827       1.32618153      -1.12201798
O       12.90621193       9.26225795      13.90144723      -1.93356113       0.37942688       0.65048757      15.99900000      -1.25015497       0.34040841      -0.80274618
H       13.39649911       9.10723716      14.71472926       0.07825637      -0.23756039       0.03495159       1.00800000       1.23375690      -0.41461694       1.36791611
H       11.96760445       9.31943458      14.23246865       0.04141623       0.17402429       0.16159777       1.00800000      -0.24096103      -0.24483432      -0.44763148
O        1.03757514       4.07805000      11.72766113      -0.03095903      -0.23310010      -0.85371000      15.99900000      -0.94039530       0.31959370       0.69605768
H        0.76050880       4.85276679      12.31348310      -0.10680301      -0.19555031      -0.08449828       1.00800000       1.10000217      -0.37716320      -0.85871226
H        1.75961334       4.31407506      11.07283268      -0.24032797       0.04615830      -0.00669111       1.00800000       0.01162066       0.40567681       0.53765255
O       16.17351456      10.37433257       4.58589239       0.08299284      -0.22557900      -0.06273265      15.99900000       0.15861505      -0.21061137      -0.52213895
H       16.49439631      10.12152676       3.63657934       0.10326306       0.04119830       0.11051475       1.00800000      -0.28995383       0.27482352       1.00965881
H       15.29719792      10.85376760       4.50481700       0.39630041       0.00840993      -0.00537912       1.00800000       0.27698624      -0.13160080      -0.06308409
O        5.52482328      -0.03535644      13.85534478      -0.01683411       0.31991835      -0.72547103      15.99900000      -1.28810859      -1.59801686       0.61463201
H        5.11030928       0.87079053      13.96892484       0.06762984       0.23222582      -0.07893756       1.00800000       0.04653302      -0.05439249       0.53644723
H        4.87886554      -0.81429459      14.24729272      -0.14840851       0.07124562      -0.07569605       1.00800000       1.43908787       1.23746908      -1.28507531
O       12.20037421       5.98404093       3.04271914       1.27213142      -0.42243256       0.10381879      15.99900000      -0.06334507       0.15168948      -0.11869265
H       11.55786416       6.57174890       2.53098198      -0.19532322       0.11266601      -0.12717259       1.00800000       0.11172495      -0.63697219       0.29505026
H       11.75809628       5.37939434       3.67568021       0.18961355       0.05050110       0.03614831       1.00800000      -0.61910695       0.17589900      -0.23271078
O       10.28805525       6.99439146       1.40936799       0.05498838      -0.40349211      -0.17959066      15.99900000      -0.03027508       1.08662605      -0.26866889
H       10.17671134       7.83053443       0.79869551      -0.13832733       0.20780222      -0.31617903       1.00800000       0.34481481      -1.03030872       0.28855741
H        9.62129387       7.14855550       2.12057442       0.22295353       0.01332362       0.05855418       1.00800000      -0.09216580      -0.38544554       0.26864761
O        5.96206872       4.12978775       1.43103875      -0.17504650      -0.25552501      -0.02139090      15.99900000       1.14016628       0.79538733      -0.06400459
H        6.62943402       3.69174799       2.03733524      -0.27148601       0.04031997      -0.13089601       1.00800000      -0.50146848      -0.29628685      -0.09504798
H        6.52335287       4.82355314       0.93892678       0.03231625      -0.10267375       0.06014316       1.00800000      -0.66833115      -0.65497917      -0.14523835
O        3.64125168       7.42100235       9.39927694      -0.02635366       0.35717959      -0.24354486      15.99900000      -1.02493989       0.22068690      -0.53893363
H        3.81122283       8.29808075       9.81160285      -0.17428038      -0.13926994       0.30315197       1.00800000       0.30626708       0.23768196       0.62969601
H        2.82284405       7.55600659       8.82040802      -0.03052392       0.22521888      -0.00392566       1.00800000      -0.05247257      -0.60156137       0.34975052
O       10.89802870      12.38083354      11.13138350      -1.41082383      -0.03004679       1.15051172      15.99900000       0.57391441       0.70944703      -0.30043101
H       11.60728669      12.06854564      11.79091987      -0.30428144      -0.17680772      -0.19478769       1.00800000      -0.32032606       0.27965090       0.25938419
H       11.04050447      13.37602982      10.95566141      -0.10690495       0.13860200      -0.21465408       1.00800000      -0.15752086      -0.69834191       0.23165038
O        6.89744207      13.86662099       1.39791841      -0.03818221       0.02473311      -0.24062237      15.99900000       0.54960161      -0.11397853      -0.44714719
H        6.40658438      14.36779316       0.69851310       0.05058765       0.10167926       0.40133426       1.00800000      -0.16977660      -0.09986641      -0.25976342