339
Lattice="14.653976132640961 0.0 0.0 0.0 14.653976132640961 0.0 0.0 0.0 14.653976132640961" Properties=species:S:1:pos:R:3:momenta:R:3:masses:R:1:forces:R:3 total_charge=0 exec_time=1758997627.7455804 step=40000 time_fs=79799.999999925 time_ps=79.799999999925 charge=0 spin=5 Nmols=115 Comp=---UNK_Cl(2):UNK_Fe(1):UNK_H2O(112) units="_JSON {\"energy\": \"eV\", \"forces\": \"ev/Ang\", \"stress\": \"ev/Ang^3\", \"time\": \"fs\", \"real_time\": \"s\", \"temperature\": \"K\", \"pressure\": \"GPa\", \"density\": \"g/cm^3\", \"momenta\": \"(eV*u)^0.5\", \"target_temperature\": \"K\"}" time=19999.999999985655 density=1.1316014953983986 temperature=306.21879182870174 target_temperature=300 config_type=md energy=-292427.96875 stress="0.0016350437654182315 -0.0036091061774641275 0.0005989132914692163 -0.0036091061774641275 0.0019515190506353974 -0.0012380294501781464 0.0005989132914692163 -0.0012380294501781464 0.0012802340788766742" free_energy=-292427.96875 pbc="T T T"
Fe       8.61130021      13.08328182      11.32314871       0.43316631       0.45187312      -0.77349681      55.84500000       0.69433939      -0.20181033       0.70277911
Cl       7.76053897      12.57770747       5.01853756      -1.85494257      -0.14676726      -0.43285402      35.45000000      -0.34614062      -0.16641980       0.02447961
Cl       8.44007946       2.76456370       5.72485160       0.06575465      -0.99395707       1.40340799      35.45000000      -0.54311055      -0.49997312      -0.04513171
O        7.47317544       7.41555779       4.07021298       1.18750073      -0.53806437       0.68559453      15.99900000       0.50186092       1.51359367       0.59653699
H        7.44149786       8.36661614       4.33986614      -0.19777909      -0.05894345      -0.16674870       1.00800000      -0.06540664      -0.84597242       0.31796694
H        6.89384410       7.45532219       3.30356847      -0.04747764       0.08815024      -0.12384574       1.00800000      -0.37981480      -0.77194434      -0.57058734
O        2.27006750       4.09609287      10.49325214       0.14757447       0.45788969       0.38993319      15.99900000       0.32527041       0.55016750      -0.46359214
H        2.11819166       5.00805523      10.83922514      -0.00301443       0.11811675      -0.34768654       1.00800000       0.05099846      -0.22353698       0.07158095
H        3.07445364       4.13919487       9.94993611       0.06275902       0.12256454      -0.11513504       1.00800000      -0.14028218      -0.19939592       0.18298060
O        3.47226204       8.55764557      -3.98453499      -0.19571372      -0.74199089       0.54414724      15.99900000       0.18612523      -0.25225788       0.39361963
H        3.76927686       8.67056921      -4.87560905       0.20110962      -0.09266513       0.19446219       1.00800000       0.58733916      -0.44023111      -1.06759906
H        3.07732415       9.41083139      -3.83984115      -0.20610820      -0.09468179      -0.22328253       1.00800000      -0.65880787       0.85858482       0.63583821
O        8.56569782       4.81358826      12.40064086       0.06205861      -0.65679641       0.74586397      15.99900000       0.97084755      -0.16358536      -0.26805055
H        9.45123042       4.50496007      12.75237603       0.11811599      -0.13345590       0.07391390       1.00800000      -0.65102023       0.29797110       0.08599120
H        8.65437967       4.82740378      11.42631121      -0.15246373       0.04577426      -0.30905895       1.00800000       0.02568657       0.22540841      -0.04233648
O        7.09292423       2.42987882      10.09657148      -0.18866736      -0.55388111       0.25188290      15.99900000       0.67586362      -0.97588378      -1.56046247
H        6.49362738       2.79492781      10.73671884       0.23296194      -0.20758231      -0.24229191       1.00800000      -0.84680843       0.37603188       0.93000722
H        6.56769325       1.90559886       9.45339695       0.19081188       0.04572636       0.09545599       1.00800000       0.33111012       0.27680710       0.62873119
O       10.34556103       5.05993276       6.13037517      -0.14194552       0.87367672       0.66631194      15.99900000       0.99405634      -0.21232106      -0.38497102
H       11.26923920       4.77243510       5.99518921       0.24348538       0.05184118      -0.04788516       1.00800000      -0.27675614       0.65662718       0.27374253
H        9.88112879       4.23101495       5.92861807       0.44251231      -0.13368032      -0.10841478       1.00800000      -0.65787446       0.06308165       0.15983379
O        3.94819965      11.63031378       9.94054103       0.92044500       1.01763085       0.19853325      15.99900000      -1.53255844       0.25149786      -0.31285027
H        3.00560551      11.95309273       9.89198382       0.16728338       0.06815739       0.17077054       1.00800000       0.81055582      -0.30766332       0.37442094
H        4.21463041      11.75471661       9.02430259       0.13867567      -0.07444670      -0.12759273       1.00800000       0.59045440       0.08845411      -0.30746725
O        3.77730432       6.70577436       3.85142400      -1.04849675       0.63042838      -0.41825701      15.99900000      -0.33484757      -0.05301116       0.00862953
H        4.39666258       6.22800650       3.24900825      -0.27758773       0.13770933      -0.06293410       1.00800000      -0.20640787       0.42116290       0.31775057
H        3.45832975       6.11379553       4.55145642       0.02777402       0.11108000       0.27130058       1.00800000       0.39879447      -0.34861737       0.06746322
O        5.27587034      14.49549927       9.22227734       1.34741637      -0.12362940       0.15401461      15.99900000       0.82059598       0.04018135      -1.11212480
H        4.59387862      14.57304142       9.90604576      -0.03699996      -0.04731689       0.03081685       1.00800000      -0.71511239      -0.45125824      -0.24442571
H        4.94830200      14.09352929       8.36138285       0.23587935       0.19393008      -0.25997130       1.00800000      -0.16098891       0.55176520       1.42791641
O        1.27759759       3.58406267       3.75790121      -0.39150800       0.43096133      -0.11008356      15.99900000       0.13296743       0.36909008      -0.38419992
H        0.58332278       3.88072635       3.14192317      -0.11954436      -0.27049632       0.03480424       1.00800000       0.06529172       0.04138262      -0.07433923
H        0.95717050       2.74395120       4.14892620       0.20873278       0.23314883       0.29057519       1.00800000       0.03201377      -0.30727077       0.04169232
O       15.49940294      10.49712789      19.04320895       0.67591968      -0.26848335       1.83000766      15.99900000      -0.14233623      -0.67398286      -0.98979664
H       14.99723920      11.02881652      18.35800592      -0.13019028      -0.04960974      -0.12148732       1.00800000       0.59144759      -0.36240888       0.29913256
H       15.91725745       9.75476249      18.53690066      -0.02421148       0.07401361      -0.05444732       1.00800000      -0.46785590       0.83628917       0.39738303
O       20.49363970       6.24074279       2.28452578       1.09298973       1.01713408      -0.22011541      15.99900000       0.16667217       0.03389662       0.15791458
H       20.94208815       5.39398242       2.49161571       0.02723694       0.08586224       0.09324085       1.00800000       0.13107702       0.02367228      -0.23891899
H       20.63960102       6.45513833       1.35463426       0.03834146      -0.01888677       0.03890144       1.00800000      -0.21628653      -0.21815357      -0.27388927
O       10.39009773       7.60995365       4.11877968      -0.33574613       0.32205522      -0.79906483      15.99900000      -0.22228175      -0.40407068       0.37209216
H        9.46731743       7.29814871       4.26391562      -0.13929697       0.06823058      -0.04096532       1.00800000       0.43291283       0.02184374      -0.37511182
H       10.90826580       7.19341733       4.84400275       0.08704967       0.00216621       0.27360546       1.00800000      -0.16066584       0.29867667      -0.08937057
O       18.55988467       9.67005961       3.91570152       0.34061154      -0.83982527       0.00666576      15.99900000       1.13351655      -2.40014458       1.14312601
H       18.06284033       8.84684635       4.11986980      -0.05146413      -0.39243462       0.11689348       1.00800000      -0.27921525       0.55102432      -0.52463806
H       19.42774724       9.31412714       4.32308837       0.04967155      -0.22008205       0.12947947       1.00800000      -1.02640343       1.21885645      -0.70956302
O        4.76514604      13.21440958       0.49220681      -0.91438057      -0.04303047      -1.16220072      15.99900000      -1.23584354       0.34364632      -1.75819373
H        5.45613281      13.16797396       1.13085089      -0.37981606       0.35252952       0.20543785       1.00800000       0.74364245      -0.57081050       1.17319298
H        4.06535977      12.55792011       0.67789138       0.32728780      -0.09536733       0.20606803       1.00800000       0.47637123       0.15102179       0.70813841
O        2.02342537      11.69023905       6.74653306       0.16316028       0.34947086       0.26129239      15.99900000       1.50456798      -0.80898631       0.24614884
H        2.98500439      11.46264802       6.94190707       0.03776639      -0.02099871      -0.15571321       1.00800000      -1.78790605       0.29166293      -0.61602110
H        1.75094753      11.15899275       5.95525977       0.09117500       0.04112548      -0.21791108       1.00800000       0.35167736       0.61667109       0.51603019
O       12.11762675       7.20963007       6.50753677       0.15111025      -0.43439154      -0.20735513      15.99900000       1.30411410       0.75367904      -0.79609644
H       11.48659533       7.49284955       7.17135795       0.17949394      -0.24168514      -0.03549825       1.00800000      -0.36487913      -0.02850378       0.71653152
H       12.79510083       7.95764384       6.43189930      -0.15368582      -0.10016617       0.11375443       1.00800000      -1.18268323      -1.47722149       0.10573785
O        9.16276852       5.29953939      15.75261374       0.30068076       0.19946032      -0.08224982      15.99900000      -0.49585873      -1.36265683       0.85016763
H        9.05091168       4.40453878      16.20134000       0.17620234      -0.17337498       0.37324603       1.00800000       0.33905208       1.63890362      -0.82802528
H        9.93189701       5.67039890      16.20527134      -0.03801643       0.02922914       0.07351654       1.00800000       0.17801958      -0.12184302       0.06958129
O       -1.96746675       9.86119048       9.83325807       0.15742035      -0.52412736       0.08277100      15.99900000      -0.44345129       1.68710375       1.54455936
H       -2.07980013      10.77419627       9.41963519      -0.27525192       0.11196460      -0.04538753       1.00800000       0.07058696      -1.11436319       0.69879496
H       -2.02670027      10.05089565      10.84228386      -0.27272821       0.11824428      -0.07502223       1.00800000       0.17258579      -0.49858654      -2.07580686
O        4.94227507      11.27046512      12.42951675       0.17150631      -0.07471855       0.59005967      15.99900000       0.93351156       0.25243750       0.64171815
H        4.88157873      11.45399025      11.48143116       0.31117488       0.36471279      -0.15240621       1.00800000      -0.50057846       0.00283577      -0.63159418
H        5.70375778      11.81572599      12.70810251      -0.07735705       0.00912465      -0.02109421       1.00800000      -0.23671749      -0.05943812       0.23913473
O       12.91076907       3.32481399       4.47785941       0.16687314      -0.34533667       0.09449488      15.99900000       0.81096137       0.36728919       0.68141127
H       13.54046227       4.08421346       4.48661978       0.02333610       0.12821460      -0.02026859       1.00800000      -0.41389948       0.02614760      -0.17542519
H       12.96849640       3.04065446       5.40963737      -0.09591629      -0.26901385       0.23269960       1.00800000      -0.42082858      -0.26072931      -0.12577289
O       13.91187319      -2.08977934       7.06042798      -0.63829181      -0.19820766       0.16364859      15.99900000      -0.04444885       0.09369564       1.01478112
H       14.05617590      -2.98140207       7.38640612      -0.09004667       0.11201040       0.05637822       1.00800000       0.28163153      -0.17259851       0.01295375
H       13.67944455      -2.16389739       6.13644954      -0.03975401       0.22658278      -0.37210799       1.00800000      -0.12239328       0.07949871      -0.98217678
O       10.91966648      16.26343530      14.51546457       0.34724680      -0.47450202       0.40363036      15.99900000       0.70918512      -2.55604458      -0.44762835
H       10.68356828      17.17203052      14.52798410      -0.02035503      -0.22265789       0.46522745       1.00800000      -0.44866914       1.67295504       0.53064787
H       10.86661274      15.78791887      15.37567700      -0.02345361       0.30367840      -0.04141251       1.00800000      -0.21029139       0.80507195      -0.16305299
O        4.63927998       9.09119949      -0.46716730      -0.34534283      -0.30469516       0.09577622      15.99900000       0.07953195       1.95318437      -0.81014121
H        4.99604792       8.21102868      -0.62998171       0.02088552      -0.17167235      -0.01430160       1.00800000      -0.10692328      -0.39061636      -0.18303610
H        4.90149186       9.73642407      -1.19951584      -0.14260995      -0.04394732       0.24822855       1.00800000      -0.41239280      -1.21575892       1.02729964
O        1.59847397      -0.94617769       3.51028506       0.64219744       0.28979389       1.01816131      15.99900000       1.28128076       0.45477641       0.63772172
H        1.22439176      -1.50531387       2.85108536      -0.18912333       0.02486726       0.18235272       1.00800000      -1.20945477      -0.84427249      -1.08742070
H        2.38645647      -1.48087408       3.75498355      -0.20565752       0.08448273       0.03084289       1.00800000      -0.29592529       0.13699590       0.51162189
O       14.88956758       8.86967833       8.23172729      -1.65349911       0.41263797      -0.28414302      15.99900000      -0.92876190       0.48399913      -0.82758814
H       14.34617076       9.04776232       7.41299027       0.22025730       0.12533802      -0.06623430       1.00800000       0.80530417      -0.17162581       1.06768358
H       14.24266774       8.87422123       8.97162146      -0.04123235      -0.02314625       0.10174900       1.00800000       0.48276836      -0.05996115      -0.30650377
O        2.75395053      11.48290520       1.66884215       0.36225708       0.97291395      -0.57312920      15.99900000       0.31922776       1.14949131       1.03370547
H        2.66903063      10.93871764       0.89759741      -0.07184130       0.04189464      -0.30492551       1.00800000      -0.35477901      -0.92617106      -0.58806592
H        3.32186591      11.02309702       2.30924896      -0.32074581      -0.24978912      -0.02613286       1.00800000      -0.00413094      -0.16482449      -0.37293059
O        3.81553363       0.75461108       5.02026823       0.19375556       0.16112491       0.39276765      15.99900000      -0.31934071      -0.68398762       0.71126747
H        3.96191814       0.05257781       4.37391327      -0.32931903      -0.07805605       0.19758770       1.00800000       0.12219397       0.41957563      -0.11515418
H        4.00086017       1.59249798       4.60378294       0.37598362       0.20217614      -0.02214143       1.00800000       0.22528540       0.43261945      -0.27692086
O        8.21177208      -0.03035894       7.83272775      -1.06454876       0.15547664       1.13501209      15.99900000      -0.02836664      -0.33466130       0.24371824
H        8.46148547      -0.64238024       7.11140099       0.02670789      -0.03856560       0.03421537       1.00800000      -0.34437656       0.63130814       0.03568128
H        8.11547891       0.87437141       7.48680940       0.00873830       0.06259802      -0.00513571       1.00800000       0.27590421      -0.21126282      -0.43764722
O        5.76548701      10.65977292      16.43752639      -1.73055340       0.12812041      -0.03232369      15.99900000      -1.05098581       0.89898455      -0.20841467
H        6.53487535      10.36833858      16.88162415      -0.39106400      -0.16164751       0.17318496       1.00800000       1.40201497      -0.39230657       0.67587137
H        5.60011115       9.98015533      15.78305875       0.25073632       0.31446056       0.16144446       1.00800000      -0.30158505      -0.41036832      -0.54419315
O       12.71615994      12.71821984       4.64194262      -0.09327591       0.20481785      -0.49994966      15.99900000      -0.46953505       0.43814492       0.27221185
H       12.13862139      11.96609919       4.83177431       0.25186030       0.25845594      -0.00898516       1.00800000      -0.38712609       0.17113949       0.03846630
H       12.23050214      13.49529232       5.01460460       0.02123978      -0.17004544       0.08780082       1.00800000       0.22442718      -0.32466415      -0.30355451
O       -0.88540539       4.04531432      16.41690637      -0.28382429       0.66442926      -0.42336228      15.99900000       1.29618454       3.33955956      -0.34605008
H       -1.15208565       3.17014461      16.31827711      -0.27511838       0.09103697       0.14684634       1.00800000      -1.16578126      -2.65887523      -0.30630413
H       -0.63220317       4.40067668      15.52426449      -0.06829866       0.46936728       0.11301984       1.00800000       0.14070797      -0.36631986       0.84780252
O       11.99813100       9.38111829      15.84388589       0.41368481      -0.05312413      -0.01166399      15.99900000      -0.71913797       2.15757132       0.38932687
H       11.83980671       8.79283774      16.56606934      -0.02053338      -0.07311874      -0.38198217       1.00800000      -0.08769273      -1.06553209       0.84946883
H       11.60536618      10.23844405      16.22245981       0.10414290       0.02587837      -0.02613252       1.00800000       0.79255712      -1.11657548      -1.13049519
O        5.79084959       5.81083497       5.99738761      -0.34406262       0.22065367       0.58836892      15.99900000       0.17470288       0.30711719      -0.28413191
H        5.84838390       6.40620553       5.21327319      -0.26078467      -0.03945693       0.25507469       1.00800000      -0.24697757      -0.39488232       0.86023200
H        5.01560008       6.03016261       6.56172992      -0.03976306      -0.15634931       0.03759010       1.00800000       0.28284240       0.34259343      -0.40969729
O        5.01508540      17.81111302       5.94332139      -0.72335003       0.79115232      -0.03022716      15.99900000       0.34965318      -1.31779647      -0.14558814
H        5.30845197      18.69832015       5.79594841      -0.03955054      -0.22743686      -0.11112370       1.00800000      -0.09802087       2.16698384      -0.15313062
H        5.88995321      17.41135868       5.89027475       0.14960806      -0.19979461       0.08522135       1.00800000       0.41490382      -0.85557425      -0.00399212
O       18.79990694       2.63633550       8.31284625      -0.15272929       0.14481976      -0.75799039      15.99900000      -0.38727576       0.39726207       1.20230591
H       19.19669654       1.95796776       8.85998055      -0.07954176      -0.15289789       0.00448777       1.00800000       0.09561216      -0.53061032       0.09847871
H       19.36037874       2.74506706       7.53323977       0.08515340       0.23311501       0.02458132       1.00800000       0.08501109       0.15255482      -0.79743910
O       -1.78159246      12.91699456      11.70506432       0.14588654       0.00354864       0.02254646      15.99900000      -0.82250178      -1.71117902      -1.23701251
H       -1.79218152      12.78536447      10.70214519       0.03331273      -0.33292670      -0.16771669       1.00800000      -0.17391407      -0.05436639       1.14219499
H       -1.30357958      13.71989823      11.74141497      -0.19711411       0.29718746       0.18732419       1.00800000       1.05183458       2.14142299       0.05397981
O        1.42567837      16.75366809      11.98854313       1.31318895      -0.21371689      -0.90285849      15.99900000       0.09831717       0.77709687      -0.65364820
H        0.50539352      16.46221518      11.76797286      -0.06740402      -0.46336573      -0.30837020       1.00800000       0.39886582      -0.00211355      -0.28642583
H        1.69987329      17.47676645      11.33288818       0.01200255       0.22823495      -0.03735037       1.00800000      -0.55117339      -0.77115107       0.82247984
O        9.73797672      10.40101381       8.28448227       0.10064902       0.60932060      -0.42865932      15.99900000      -0.58814692       1.54575992       0.22381106
H        9.92303637      10.73787222       9.18734207       0.14959783       0.16882593       0.08078773       1.00800000       0.18875510      -0.22347714      -0.28311375
H        9.73495477      11.24764223       7.74319322       0.01476170      -0.22185326       0.17269739       1.00800000       0.54778624      -0.91019011       0.27090833
O        5.64430027      14.06303595       2.97984836       0.04131872       0.65761688      -0.25413356      15.99900000       0.19975440       0.41793367       0.02011124
H        6.16104477      14.87754494       2.79870614       0.14111042      -0.09090438      -0.11818241       1.00800000      -0.19395891      -0.51703370       0.06109453
H        6.15689659      13.59117810       3.65670151      -0.23966338      -0.41329865      -0.11619833       1.00800000       0.40940848       0.09343799       0.02228134
O        3.18999521       0.17343580      -3.35884732      -0.14936911      -1.34217445       0.12683719      15.99900000      -0.03147446       0.75992644      -0.17858768
H        2.51768747       0.90097602      -3.32479440       0.30449048       0.08119498       0.10438004       1.00800000       0.36915678      -0.39700055      -0.02284382
H        2.79007655      -0.50202245      -2.79000613      -0.24463741       0.21449703      -0.18142222       1.00800000       0.21073577      -0.33809429       0.04817297
O        7.56351857       9.68020091      11.46216921      -0.12739710       0.21534801       0.44789042      15.99900000       1.11011279      -1.48239994      -1.09863758
H        6.91220339      10.13149747      11.95044150       0.03791172      -0.00422201      -0.31515938       1.00800000      -1.39076829       1.18859768       1.12496769
H        7.07516587       8.93164578      11.04631399       0.22946037      -0.18457704      -0.07827114       1.00800000       0.21817216       0.32200193      -0.52224797
O        1.16747240       7.23752693       3.14251869      -0.25300778      -0.34912847       0.03517154      15.99900000       0.50947011      -0.18210131      -0.47092366
H        1.00203047       7.33007466       2.17681329      -0.00838539       0.26913128       0.05545894       1.00800000       0.00205443      -0.08486929       0.76466179
H        2.06706110       6.82940715       3.27556687      -0.06727095      -0.03850465      -0.01719854       1.00800000      -0.76768607       0.63695574      -0.35886642
O        6.24221410       3.54253483      12.43909023      -0.93185589       0.36572663       0.30740637      15.99900000       0.24354774       0.06816801      -1.05949521
H        5.97697095       3.41873353      13.35552616       0.12043921      -0.06537593      -0.21859345       1.00800000      -0.31989872      -0.00131189       0.61313367
H        7.12212485       3.98888708      12.43358553       0.21192547      -0.14993371      -0.02693167       1.00800000      -0.02635347      -0.22558743       0.51294851
O       17.15050120      12.85204505      13.07073053      -0.04768812       0.20963678      -0.81996175      15.99900000       1.71806586      -2.28164029       0.23002014
H       16.78913467      12.15394004      12.47855387      -0.16014008      -0.12681676      -0.16287744       1.00800000      -0.08552454       0.58099985       0.23870070
H       18.02538154      12.36890797      13.33575374       0.17789354      -0.34652882       0.14636274       1.00800000      -1.74919081       1.40596581      -0.69282973
O       14.53169945       7.91184892      15.36358267      -0.25574547       0.21442573       0.33395013      15.99900000       0.32015115      -0.75518978      -1.03114891
H       14.50415358       7.19000326      14.70472936      -0.04176323       0.12074838       0.25347816       1.00800000       0.58657980       0.01095627       0.41803807
H       13.60903115       8.16787624      15.32929441       0.23028911      -0.21143125      -0.12377311       1.00800000      -0.51740032       0.78162748       0.53543389
O       -2.52930002       6.23143143      16.46255455       1.42334319      -0.67848577       0.16259927      15.99900000      -0.86359936       0.70552480       1.11206293
H       -2.99126732       6.46438189      17.30831144      -0.08232660       0.02692989       0.08571769       1.00800000       0.42640796      -0.16130637      -0.85666931
H       -1.91573128       5.51847371      16.71563727       0.16078724      -0.02379724       0.14740124       1.00800000      -0.09321588      -0.27744466      -0.20398627
O       15.24998969       1.29469346       4.98619659       0.93196988      -0.42077292      -0.65056495      15.99900000      -0.53965372      -0.92452896      -1.52382374
H       15.59813152       0.46577632       4.55631512       0.05442823       0.07105732       0.10321464       1.00800000      -0.20007285       0.69505018       0.40100190
H       15.76997238       1.42446381       5.75999634      -0.31651672      -0.27957235      -0.07529355       1.00800000       0.73463452       0.04839929       1.21470261
O        2.47278349       2.95848239      14.33389526      -0.24250108       0.18632801      -0.68844068      15.99900000      -0.73271811       0.33448195      -0.78720123
H        2.40294328       2.26133797      14.98611193       0.16822116       0.24423675       0.06647944       1.00800000       0.06446310      -0.70722139       0.39252505
H        2.19181602       2.59454088      13.45440697       0.35180887      -0.17214602       0.16034369       1.00800000      -0.27385759      -0.10892169       0.36518359
O       12.25334295       2.38169793       7.15770524       1.20786984       0.19430531       0.35344335      15.99900000       1.78655756      -0.71662390       0.44450510
H       13.08566992       1.86447054       7.46861699      -0.18767908      -0.15274213      -0.07378213       1.00800000      -1.77359700       0.98457110      -0.00250018
H       11.74414540       2.77970475       7.89904395      -0.04870617      -0.06140077      -0.01095306       1.00800000       0.64623237       0.13549924       0.02216856
O       14.16310358       5.87509817       4.93885502       0.19284561       0.28339335       0.59467234      15.99900000      -1.12207389      -0.38785842       1.21326947
H       13.42581164       6.39216412       5.33752999      -0.25629007       0.12159005      -0.16124567       1.00800000       0.57633698      -0.56367111      -0.21389502
H       14.37028029       6.29481874       4.11361012       0.09703782       0.26821513      -0.15028776       1.00800000       0.67314970       0.73260552      -0.90859693
O        1.81745330       9.78417698      -0.29526995       0.35837180      -0.68530169       0.22026794      15.99900000      -0.82693607       0.68793035      -0.25240129
H        1.33531576       9.12223954       0.21592107       0.03136324       0.22376023      -0.09913476       1.00800000      -0.41680685      -0.29743570       0.18322922
H        2.68846113       9.43925402      -0.46893573       0.20000351       0.06707492      -0.14093243       1.00800000       1.24283886      -0.62964511      -0.14254791
O        5.38372895       5.58767983      10.87505294       0.45745213      -0.25945109       0.78510659      15.99900000      -2.31647229       0.59256727      -0.25187695
H        4.38281465       5.74318079      10.90673379       0.09407761      -0.00564973       0.04354948       1.00800000       2.10640287      -0.23372534       0.08245024
H        5.54769536       4.78489253      11.39879430       0.05217968      -0.07588078       0.10989399       1.00800000       0.02976383      -0.13257751       0.36518294
O       12.19323125      10.23963099      12.98960688       0.04726153       0.22539417       0.71507351      15.99900000      -0.50809103      -0.11891679      -0.72381783
H       12.85562690      10.76998909      13.46271066      -0.02896553      -0.00710754       0.19517067       1.00800000      -0.18409698      -0.13687034       0.21939535
H       11.74393189       9.62702858      13.60009092      -0.11292784      -0.20990311      -0.17944981       1.00800000       0.44172812       0.26583049      -0.05969553
O       13.16538143      16.15825041       2.40348997       0.42373991       0.77024856       0.27731782      15.99900000      -0.62817258       0.31318516       0.90816402
H       13.30119781      16.56220502       3.30013505      -0.05498719      -0.06660638       0.02596008       1.00800000      -0.31268811      -0.07279389      -0.42339548