340
Lattice="14.560660492283056 0.0 0.0 0.0 14.560660492283056 0.0 0.0 0.0 14.560660492283056" Properties=species:S:1:pos:R:3:momenta:R:3:masses:R:1:forces:R:3 total_charge=0 exec_time=1758997221.2454898 step=40000 time_fs=78199.99999992663 time_ps=78.19999999992663 charge=0 spin=6 Nmols=116 Comp=---UNK_Cl(3):UNK_Fe(1):UNK_H2O(112) units="_JSON {\"energy\": \"eV\", \"forces\": \"ev/Ang\", \"stress\": \"ev/Ang^3\", \"time\": \"fs\", \"real_time\": \"s\", \"temperature\": \"K\", \"pressure\": \"GPa\", \"density\": \"g/cm^3\", \"momenta\": \"(eV*u)^0.5\", \"target_temperature\": \"K\"}" time=19999.999999985655 density=1.1725664245876124 temperature=305.47535572106324 target_temperature=300 config_type=md energy=-1670.7497086961373 stress="0.0012572314590215683 9.1813944891328e-06 -0.0015597229357808828 9.1813944891328e-06 0.0014058391097933054 -0.0006914917612448335 -0.0015597229357808828 -0.0006914917612448335 -2.880208194255829e-05" pbc="T T T"
Fe       8.41266438       9.73076350       7.99864154      -0.10248248       0.49284604      -0.57567016      55.84500000      -0.11216053       0.23665205       0.09508379
Cl      11.82870106       4.60423937      10.93939034      -0.85454484      -1.75318975       0.67051463      35.45000000       0.21274742      -0.37777770      -0.16215990
Cl       3.68871634      13.71953266       7.37113119       0.84731200      -0.24238767       1.10367491      35.45000000       0.22869338       0.22582260       0.41646594
Cl       7.91526982       8.01606696      13.03482097       0.48389707      -0.41085081       0.57810036      35.45000000       0.81438661       0.02704233      -0.25778922
O        6.87591286       8.93706757       6.92776759       0.34612279      -0.22230067      -0.25764415      15.99900000       0.07593521      -0.22466460       0.72254622
H        6.88997466       9.28554959       6.02023616      -0.06734496       0.08539588      -0.08844895       1.00800000      -0.36310449       0.42979872      -0.65905672
H        5.99568804       8.55945427       7.24976108      -0.20068433      -0.18254565      -0.00858254       1.00800000       0.42419249      -0.02566014       0.01881730
O        3.90293435      11.30216260      11.98924273      -0.74696550       0.29882899      -1.82950686      15.99900000       1.53722572      -0.33849284       0.96049225
H        3.45224614      11.81949022      11.31973768      -0.12379650       0.21824462      -0.04416889       1.00800000      -0.86261529       0.64145559      -0.96051419
H        4.89397247      11.38734191      11.78885094      -0.40374947       0.36660493      -0.13784565       1.00800000      -0.35215566      -0.20172086       0.45403114
O       13.14121654       8.70308967       1.39222704      -0.22836042      -0.33459657       0.26189609      15.99900000       1.24176836       0.38936299      -0.21234185
H       13.08507413       8.20044701       2.20996691       0.20157908      -0.08142233       0.02086886       1.00800000      -0.17700131      -0.27588746       0.65315628
H       12.37498334       8.49450257       0.82619597       0.30770909       0.11521372      -0.09262927       1.00800000      -0.79753602       0.26788884      -0.49426532
O        4.96548282      12.94653084       3.23513186      -0.20113993      -0.68201710       0.04197398      15.99900000      -0.93442851      -2.21268821      -0.79315984
H        4.29548819      12.19401648       2.94734320       0.13632156      -0.03293220       0.01483391       1.00800000       1.40133417       1.10173869       0.56723499
H        4.39466746      13.70209976       3.41053258      -0.12891776      -0.10539938      -0.22134425       1.00800000      -0.40917629       0.98946542       0.29444039
O        0.19743026      12.58227054      12.22605304       0.13692332      -0.78843926      -0.54357259      15.99900000       1.15334499       0.39339787      -1.34070742
H        0.27164628      12.87702434      13.16624403       0.24455948       0.09044884      -0.05220842       1.00800000      -0.47487953      -0.16358624       0.76682895
H        1.06796892      12.91288170      11.84322550      -0.05663728      -0.17992957      -0.25286509       1.00800000      -0.62038392      -0.47025478       0.08908162
O        8.11997452       2.51282660       9.79268811      -0.16254239       0.04507085      -0.11973706      15.99900000      -0.36712384       1.82145786       0.14828329
H        8.57782560       1.66760468       9.76852779      -0.20495868       0.30510980      -0.13484036       1.00800000       0.63539189      -0.91428083      -0.11766143
H        8.78166206       3.20560416       9.54916472       0.06168479       0.12188142       0.03846463       1.00800000      -0.62692326      -0.62685174       0.17042515
O        5.89093669       7.68793118      10.70373489       0.00561239       0.05844219      -0.09528945      15.99900000      -0.92130178       0.37078837       1.74267709
H        6.63169500       7.54032302      11.34533964       0.31224379       0.23970618       0.08161991       1.00800000       0.13027619      -0.01653493      -0.25266650
H        5.11376424       7.73562250      11.40599786       0.00447518      -0.40028850       0.09304590       1.00800000       1.31350791      -0.16335943      -1.26963580
O        2.55687566       9.29422954      11.41381691      -0.27915318       0.28789982      -0.24409071      15.99900000      -1.31237102      -1.46192276      -1.16477847
H        3.16220044      10.02906672      11.65127142      -0.06694384       0.06171056       0.03570368       1.00800000       0.55562574       0.97232163       0.67045927
H        1.58095859       9.50336468      11.57906814       0.14993103      -0.12900521       0.16144785       1.00800000       0.41301781       0.04357029       0.23932454
O       11.13664945       9.18756282      -0.24491352      -0.38618750      -0.55024732       0.30181982      15.99900000      -0.50868863       0.55313611       0.58040607
H       10.41286317       8.78024022      -0.75333557       0.07209294       0.11413309       0.00818947       1.00800000       0.04901970      -0.07477993      -0.08342524
H       10.69667587       9.96211136       0.25305023      -0.34843019       0.12451934       0.27766022       1.00800000       0.50672781      -0.31349239      -0.34930980
O        4.75469240       1.24607889      12.92237095      -0.30958349      -0.07288789      -0.44564432      15.99900000       3.13612652       0.02179048      -0.02623839
H        3.85427764       0.99928647      12.96434051       0.12879066       0.12335878       0.03810782       1.00800000      -2.74089718      -0.62493372      -0.11214720
H        4.89922044       2.23190679      12.97962271      -0.01420253      -0.04031528      -0.15451990       1.00800000      -0.02369557       0.54152119      -0.09029783
O        0.43512389       3.59720248       6.18868611      -0.17951276      -0.76503196       0.23511200      15.99900000       0.37934002      -0.47746906       0.71290588
H        1.30370693       3.15909416       6.45353431      -0.19296254       0.01416018      -0.35992532       1.00800000      -0.15785107       0.32742536      -0.18920833
H       -0.19413949       3.52157897       6.95983086      -0.02524164      -0.20911683      -0.02809514       1.00800000       0.16132797      -0.13946013      -0.07375959
O        8.44158074      12.41505320       3.93117160      -0.15134068      -0.63454225       1.43763458      15.99900000      -0.26984993       0.89294332      -2.03487420
H        8.03477582      12.57120878       2.96230403      -0.05760919       0.20594965       0.00474186       1.00800000       0.85961378       0.05351692       1.39160144
H        7.80010427      11.74963064       4.24239624      -0.00277005       0.23628312      -0.16004207       1.00800000      -0.21724218      -0.55145293       0.52258635
O        7.86085417       3.97309756      13.38169778       0.50018468       0.35939363       0.16119359      15.99900000      -0.25391114       0.22841494       0.23532611
H        8.45607063       3.20534405      13.55335171       0.14391799      -0.00570484       0.15552580       1.00800000       0.46152005      -0.41683143       0.05755862
H        8.27633391       4.53803313      12.66590821      -0.03661561      -0.04262617      -0.20519795       1.00800000       0.14850128       0.01420572      -0.03303425
O        4.17153537       9.69436727       5.02906383      -0.61126629      -0.45132133      -0.53489352      15.99900000       0.13219321      -0.35354251       0.74557084
H        3.61162135      10.32045334       5.60235552      -0.11575634      -0.11645352       0.15272170       1.00800000      -0.05432894      -0.03268654      -0.22614726
H        3.81171376       8.78077047       5.21420562       0.13863178       0.19608089      -0.10819998       1.00800000       0.30295482      -0.11633448      -0.34365368
O        0.34144814       4.47962539      12.03935514       0.19772303       1.11804464      -1.09953074      15.99900000       0.18549280       0.03926807      -0.21373482
H        0.68621443       4.25093088      11.09279920       0.14210144       0.09788758       0.22774410       1.00800000       0.52590954      -0.33792555       0.27338323
H       -0.58917032       4.51676006      11.73836657      -0.02167240       0.35614319       0.06426043       1.00800000      -0.75973892       0.22333258       0.70588124
O        0.63672144      11.74449369       8.12132738      -0.71748724       0.22913436      -0.53695485      15.99900000      -0.53441107       0.28078434       0.16122559
H        0.39410069      12.63473871       7.60079724      -0.02435931       0.14794985      -0.11461935       1.00800000       0.51109821      -1.38347304       0.04374654
H        1.23751029      11.22503879       7.52001652      -0.23557577      -0.11190147       0.11106471       1.00800000      -0.15520389       0.53520381       0.12224281
O        7.18494036       5.42041027       0.96610460      -0.78362396      -0.69739014       0.71846602      15.99900000      -0.07172326      -1.12950492      -1.11828244
H        7.37616153       4.95337314       0.06733192      -0.02950040       0.15265421       0.24943338       1.00800000      -0.02679356       0.49838206       0.99235970
H        7.69762136       6.25099433       0.95527284       0.25453028      -0.05891446      -0.21391838       1.00800000       0.62554806       0.37072921       0.16035099
O        4.01864624       2.59985275       1.92916497       1.18554525       0.48663122       0.40734562      15.99900000      -1.94599366       0.72664762      -0.04071786
H        4.30845662       3.55349321       2.17245564       0.17863696      -0.09128087      -0.00246745       1.00800000      -0.24253367      -0.84131354      -0.19254677
H        3.00378098       2.59159715       1.68452177       0.01088830       0.07004753       0.32468437       1.00800000       1.85293126       0.47882569       0.46669781
O        1.39670902      13.81494585       3.84952825       0.07393931       0.69534828       0.33466753      15.99900000       0.70040268       0.42165166       1.80573630
H        2.26567849      14.32114767       3.88234949      -0.04710058       0.24132278       0.13819086       1.00800000      -0.33929998      -0.20010194      -0.39757788
H        1.17100285      13.82855359       4.84582104       0.25500122       0.15449966       0.01002342       1.00800000      -0.29350087      -0.10073339      -1.21029711
O        7.17832739      15.74852871       6.03978770      -0.02244729       0.57070791      -0.06115058      15.99900000       0.56101352       1.13165760       0.04816832
H        7.64306285      15.71529199       5.17713143      -0.04067796       0.20257898      -0.16582437       1.00800000       0.55010575       0.01999044      -0.09886873
H        6.69886646      14.91626645       6.06026080       0.17892264      -0.28782699      -0.06900479       1.00800000      -0.51847464      -1.57242823      -0.07142386
O        0.81195315      10.63136492       4.00551783      -0.26753444       0.36741107       0.25710920      15.99900000      -1.54718566       0.80438370      -1.88157141
H        0.04814029      10.93017815       3.29296170       0.20477348       0.19255328       0.01784023       1.00800000       1.61624908      -0.21512559       1.57686055
H        0.61453392       9.67791653       4.13549448       0.20488313       0.11444515      -0.06753585       1.00800000       0.07760350      -0.10617246       0.57929909
O        1.95442516       6.15575818      -0.90482656       0.60298594       0.46771534       1.46743913      15.99900000      -1.29853559      -0.75208825      -0.63457954
H        1.35815484       6.87623454      -0.54972868      -0.25232088       0.16209962       0.09630423       1.00800000       0.36296421       0.19938393      -0.08387228
H        1.33358545       5.47249955      -1.30629653      -0.21893873       0.14115847       0.04864656       1.00800000       0.37510246       0.59110761       0.11187404
O        2.72814234      16.22808615      10.22636257      -0.25439618      -0.24610630      -0.52379252      15.99900000      -1.78341806       0.07417879       0.66481578
H        2.08951580      15.82802525       9.59408865       0.12597918      -0.04135282       0.21244848       1.00800000      -0.06941495      -0.54213017      -0.24465151
H        3.57569055      16.36417219       9.81061980       0.02598750      -0.15969807      -0.30104932       1.00800000       1.76049840       0.16352221      -0.75516647
O        8.64267254       8.02314837       4.56772764       0.10462539      -0.57281692       0.84874158      15.99900000      -1.50699508      -2.31931877      -0.59047639
H        9.30732950       7.38155436       4.11236779       0.13020079      -0.06249868       0.04299593       1.00800000       0.12165376       1.13662350       0.52852017
H        7.81903197       7.38542798       4.60170905      -0.13429148       0.28865728       0.05304871       1.00800000       1.39925253       1.19159913       0.12183842
O        0.10678424       9.88574521      12.17853482       1.52115300      -0.50375880       0.51952502      15.99900000       0.07565552      -0.61625856      -0.18311301
H       -0.73854209       9.49543589      11.82559321      -0.13669295      -0.02299414      -0.20637424       1.00800000       0.09301066       0.55337024       0.05448454
H        0.12172499      10.86885863      12.04800628       0.00446842      -0.20443448       0.14045264       1.00800000      -0.34822607       0.26422971       0.25403136
O       13.09621260       3.00606281       8.18096900       1.64856359       0.23691470       0.39439715      15.99900000      -1.64102662      -0.28853628       2.63577151
H       12.16514432       2.50036449       8.25977938      -0.07481276       0.05842987      -0.07268867       1.00800000       1.59153950       0.77645665      -1.00717604
H       13.06880753       3.46117635       9.10474362       0.15951369       0.24832369      -0.02941346       1.00800000       0.53536451      -0.50602931      -1.76811838
O        3.33386837      10.47330106       2.79873201      -0.08162161      -0.05864803       0.34024151      15.99900000       1.36848426       0.22572477      -0.69147396
H        2.42749000      10.75337677       2.93074775       0.32648766       0.29866833      -0.23036323       1.00800000      -1.40480351       0.21980205       0.42856175
H        3.62479281      10.08795240       3.69714614      -0.06721049       0.41926711      -0.09330443       1.00800000       0.07431939       0.01032110      -0.19861723
O        5.09044298       7.62259247       8.25339287      -0.22340092      -0.02578867       0.63429243      15.99900000      -0.12202527      -1.25461972      -1.19940507
H        5.57828784       7.59388772       9.12359028       0.01078967       0.22701646      -0.04176278       1.00800000      -0.13804150      -0.37679702       0.21176204
H        5.07228626       6.68878496       7.79972076      -0.00235980       0.11826763       0.05588474       1.00800000      -0.19163170       1.55358374       0.63154554
O        3.21116588       7.10297507       4.86241104      -0.12262617      -0.02289667      -0.60312159      15.99900000       0.39871752      -1.57665503      -1.22298741
H        3.65742846       6.25270600       5.28628666      -0.30899023       0.20984508      -0.12703112       1.00800000      -0.68078047       1.70399928      -0.24827713
H        3.19483803       6.89733783       3.84148620       0.06559724       0.14130028       0.15182400       1.00800000      -0.06800281       0.50723881       1.31641150
O        2.35990876       0.22063615      12.48635290      -0.38285251       1.12797722      -0.55682390      15.99900000      -0.66702038      -0.03614528       1.05705619
H        1.71399773       0.88488132      12.90431022       0.22591290       0.10348882      -0.04685747       1.00800000       0.47698739      -0.27989903      -0.57247698
H        2.58728958       0.63227065      11.62448442       0.05381529       0.01938434       0.44523364       1.00800000      -0.08599173       0.24134187      -0.45385075
O       12.33530773       2.38035479      13.65041564      -0.37991275       0.30345914       0.28564556      15.99900000       0.05545123      -1.13645053       1.79737711
H       12.23697497       2.07512813      12.71741914      -0.03195583       0.10559301       0.04365635       1.00800000       0.11891923       0.16055018      -0.95148152
H       12.39030669       3.31714372      13.83607812      -0.19577538      -0.14525470       0.01611876       1.00800000       0.33699617       1.24823618       0.07681629
O        3.35928352      12.51499525      -0.13879464      -0.82123672      -0.13438426       0.52471285      15.99900000      -0.17289732      -1.85162008       0.53472131
H        3.24016914      13.32988106      -0.59884028       0.43504038      -0.00101271       0.11872358       1.00800000      -0.01090455       1.68484545      -0.94618237
H        3.50560239      11.86992059      -0.89311922       0.04671551       0.10077316       0.10859872       1.00800000      -0.03406870       0.40384069       0.24331027
O        9.15139258       0.15891579      12.00756422       0.23334955       0.69233962       0.49170167      15.99900000      -1.01059639      -0.23578480       0.67493850
H        8.14118027       0.12197645      11.89607759       0.04787941       0.15617087       0.13649778       1.00800000       0.72916913       0.04821623      -0.09853897
H        9.51185480      -0.01208167      11.13088948       0.14363039       0.00301159       0.23443045       1.00800000       0.16589250       0.12331723      -0.82445467
O       12.17709251       8.31415213       6.98116265      -0.24262474       1.23627315      -0.66714824      15.99900000      -0.58577323      -0.46397451       0.77308035
H       12.64583750       8.94997894       7.57508464      -0.13262759       0.15064369       0.16209821       1.00800000       0.32230130       0.13201834       0.03558579
H       11.91177977       7.59452256       7.66187863      -0.15991290       0.03182494       0.10429592       1.00800000       0.27763593       0.47410268      -0.66881537
O        3.18428759       9.46085394       8.86785354      -0.45809509      -0.80193529       0.38190928      15.99900000      -1.02553964       1.00797641       1.10827816
H        2.76021820       9.42360733       9.86806439      -0.03516220      -0.07354481      -0.02684976       1.00800000       1.38158154      -0.51320118      -1.20972872
H        3.84068103       8.77453249       8.60134597       0.32272655       0.20714415       0.08663990       1.00800000      -0.02535946      -0.64590985       0.49212208
O       11.29179896      11.31390612       4.86992256       0.04880603      -0.16468903       0.09273252      15.99900000      -1.46071362      -1.23878467       0.18786827
H       10.53837047      11.68100462       4.31837250       0.02560724       0.18539330      -0.09093138       1.00800000       0.60151196      -0.16539510       0.28816497
H       10.80934762      10.78239605       5.59977459      -0.09978200      -0.06670958      -0.05387430       1.00800000       0.03388529       0.39407301      -0.81578505
O        5.07429598       4.75622914      10.55751548      -0.38672767      -0.25007600      -0.69679232      15.99900000       1.07342386      -0.72973621       1.09126687
H        5.40188280       4.42947895      11.51106003      -0.01763727       0.00179926      -0.04754094       1.00800000      -0.93804675       0.11241172      -0.90644169
H        4.33561799       5.34322875      10.81118289      -0.19312141      -0.17873205       0.11024911       1.00800000      -0.17110713       0.68569958      -0.28483725
O       10.73720575       1.85505714       7.67683312      -0.85894870      -0.52874019       0.89677873      15.99900000      -0.15616307       0.26747239      -0.17817502
H       11.13078348       1.43457497       6.84541101       0.03523351       0.39693152      -0.11075875       1.00800000      -0.18511048       0.44856349      -0.08097114
H       10.41377744       2.77618990       7.39033256       0.01655678       0.12502153       0.02297943       1.00800000       0.49572554      -0.63480204       0.01684179
O        0.03150866       0.33279988       1.89187546      -0.19024348      -0.21504016       0.18240791      15.99900000       1.27243066       2.09450674      -0.10938775
H        0.54655364      -0.03258535       2.65228072       0.28076113      -0.02872060      -0.17273570       1.00800000      -0.18256190      -1.40004265       0.93561673
H        0.59192889       1.21311241       1.90167245      -0.04034756      -0.05056851      -0.06222769       1.00800000      -1.43212318      -0.63135278      -0.64691758
O        6.84557680       5.68349843       4.47769031      -0.79086885      -0.38479192       0.43670929      15.99900000       0.10968137       0.52237326      -0.94855410
H        7.01474319       5.57492521       5.42861087      -0.15803146      -0.00143856       0.11790831       1.00800000       0.16929051      -0.49080089       0.86783892
H        7.40465971       5.01792516       4.00845487       0.31259130       0.32088240      -0.49702059       1.00800000      -0.00166137       0.02536001       0.21336219
O        9.65768446      16.50291931      13.84639815      -0.12540107      -0.69031195       0.60303584      15.99900000       0.62660509       0.07393515       0.22750546
H       10.62850672      16.77142498      13.97487262       0.22803215      -0.22275571       0.23507184       1.00800000      -0.81502622      -0.25249937      -0.26375517
H        9.67163048      15.83216846      13.09230431      -0.12571017       0.08662744       0.21108523       1.00800000      -0.30505353       0.25654143       0.22183609
O        1.10704075       2.72591028       1.56557485      -0.10009087      -0.59653985      -0.20760639      15.99900000       1.08776283      -1.73616445       0.26986244
H        0.83124313       3.62028364       1.77200520      -0.22691888       0.06845465      -0.16904871       1.00800000      -0.44106835       1.77736366       0.68340582
H        0.89978877       2.56597298       0.63217386       0.15189278      -0.14223564       0.15213801       1.00800000      -0.05453277       0.03053723      -1.17597699
O       13.48017150      13.74027141      10.27032113       0.00709225       1.13706924      -1.05196923      15.99900000      -0.24254587       1.18228006      -0.14776409
H       13.89746517      13.32384107      11.06493175      -0.14079769       0.00225112       0.11740727       1.00800000      -0.13812204      -0.66955465       0.42160413
H       12.73817376      13.25400072       9.85627888      -0.03098722       0.06551142       0.44374098       1.00800000      -0.23077139      -0.32820016      -0.17511740
O       12.76096074       4.70824589       0.73825920       0.53362819       0.08024312      -0.89531659      15.99900000       1.78326929       1.29803443      -2.62758923
H       12.19909595       4.32147009       1.38696886       0.06431259      -0.21364552       0.14848602       1.00800000      -1.21131349      -0.93709135       1.74739254
H       13.67841315       4.87647986       1.07579765      -0.00501261       0.10347183      -0.17752146       1.00800000      -0.68275392       0.03249088       0.31711027
O        6.20630602      13.28434405       5.74614100      -0.59466125       0.30145223       0.58141476      15.99900000      -0.58291423      -0.47271436      -1.09820485
H        6.07284889      13.01638888       4.75843951       0.28710578      -0.02168849      -0.05869382       1.00800000      -0.56774491       0.53975058       1.63452053
H        5.31829908      13.25110593       6.24938603      -0.00460567      -0.19584112      -0.04917228       1.00800000       0.60512859      -0.03571067      -0.88373137
O        2.15052921       5.81430204       8.37545621       0.27100868      -0.39758212      -0.04758143      15.99900000       1.58519542      -0.99593455       0.98818594
H        2.69291893       6.24121556       9.08980536       0.09566373      -0.16100769       0.12074673       1.00800000      -0.15218627      -0.34137473      -0.06046438
H        1.62485312       6.56232500       8.09632976      -0.24945135      -0.08796258      -0.01889882       1.00800000      -1.25796318       1.49105275      -0.66673470
O        0.93037891       8.30173243       8.04362371      -0.73771560      -0.31474911      -1.19544747      15.99900000      -0.62999511       0.00339367       0.88189393
H        0.16103739       8.64870351       8.69095911      -0.01519590       0.19315987       0.15693490       1.00800000       1.36599720      -0.43745875      -1.33815479
H        1.77026612       8.76986107       8.32931789       0.16462300      -0.14745075      -0.29182343       1.00800000      -0.28716764       0.00411190      -0.24951790
O       12.17919354       1.43314996      11.40103662      -0.14996262       0.61107195      -0.12190116      15.99900000      -0.18561393      -0.69928968      -2.18888378
H       11.67500365       1.95480497      10.70432088      -0.10315097      -0.02702606      -0.19678562       1.00800000       0.82031500      -0.71196944       0.91040587
H       12.68571066       0.65891204      10.94225521       0.04012884       0.11713220       0.17423390       1.00800000      -0.70571053       0.83980268       0.51437849
O        8.17153896       9.82940661       1.95728811       1.87957178      -1.11335468       0.30329868      15.99900000      -0.53255975       0.35436630      -0.00121945
H        7.53761760      10.11819162       1.23370351       0.20036770       0.06348499      -0.32539224       1.00800000       0.20644525      -0.56653363       0.40490919
H        8.48064132       8.90360102       1.81272761       0.05532002       0.14414540      -0.24835862       1.00800000      -0.10614087      -0.08513117      -0.42622671
O        5.46933651       2.76488983       6.71974453      -0.10257686       0.68460434      -0.09701009      15.99900000      -0.18134853       0.85424101       0.32672492
H        5.51083191       2.66167104       7.72556651       0.05010568       0.06539140       0.04098593       1.00800000      -0.09057970      -0.41966441      -0.37427428
H        6.16500514       2.10717179       6.27930481       0.06932672      -0.23952839      -0.05450629       1.00800000      -0.21126084       0.17179339       0.40271974
O        3.70970283      15.39778973       3.97743513      -0.66876532      -0.85561532      -0.27755466      15.99900000       0.29631943      -2.10460210      -0.42628905
H        3.77461446      16.07041605       3.29024477       0.17333665      -0.15776864       0.19904427       1.00800000       0.17280465       1.12910616      -0.76725960
H        3.36244027      15.76362989       4.78175701      -0.02440382      -0.05171405      -0.29485730       1.00800000      -0.40054470       0.99295616       1.38559401
O       12.09193883       9.04946650      11.27161908       0.14322530      -0.39747595       1.04350175      15.99900000       1.95742333      -0.88805521      -0.79551256
H       12.10761349       8.29651353      11.89874551      -0.09588029      -0.35403879      -0.03766641       1.00800000      -0.38811296      -0.16635291       0.15459998
H       11.35974628       9.60331841      11.50326919       0.01867307       0.10246305      -0.03188221       1.00800000      -1.56864250       0.96430731       0.81499422
O        8.22989575       0.84205782       1.41781144      -0.41377478      -1.19424072       0.53606700      15.99900000       0.63510877       1.17644131      -0.28853792
H        7.39132896       1.33010844       1.12347973      -0.07074558      -0.12245246       0.07301698       1.00800000       0.18463215      -0.77519685      -0.01057219
H        8.94974261       1.10657539       0.75882821       0.05937840       0.27952879      -0.28683875       1.00800000      -0.51766849       0.03032212       0.14962637
O        6.88338932      10.29641942       4.62082011       0.45544743       0.33736827       1.07146491      15.99900000      -1.56796193       1.14499378       1.84555709
H        5.89885523      10.11673419       4.66858244       0.10945602      -0.22069104      -0.03861625       1.00800000       0.19218646       0.17197268      -0.14331657
H        7.25435361       9.72310515       3.98099679      -0.21519394      -0.15096471       0.00074382       1.00800000       1.08078754      -1.41945910      -1.96495736
O       11.35904612       6.71240795      -1.57042785       0.64778742      -1.42389676       0.55856095      15.99900000       1.01901901      -0.71927369       1.42483592