340
Lattice="14.560660492283056 0.0 0.0 0.0 14.560660492283056 0.0 0.0 0.0 14.560660492283056" Properties=species:S:1:pos:R:3:momenta:R:3:masses:R:1:forces:R:3 total_charge=0 exec_time=1758997221.2454898 step=40000 time_fs=78199.99999992663 time_ps=78.19999999992663 charge=0 spin=6 Nmols=116 Comp=---UNK_Cl(3):UNK_Fe(1):UNK_H2O(112) units="_JSON {\"energy\": \"eV\", \"forces\": \"ev/Ang\", \"stress\": \"ev/Ang^3\", \"time\": \"fs\", \"real_time\": \"s\", \"temperature\": \"K\", \"pressure\": \"GPa\", \"density\": \"g/cm^3\", \"momenta\": \"(eV*u)^0.5\", \"target_temperature\": \"K\"}" time=19999.999999985655 density=1.1725664245876124 temperature=301.68287781321146 target_temperature=300 config_type=md energy=-304952.1875 stress="0.0008068722090683877 0.0011303487699478865 -0.0007578113581985235 0.0011303487699478865 0.005894261412322521 -0.003728955052793026 -0.0007578113581985235 -0.003728955052793026 -4.370400347397663e-05" free_energy=-304952.1875 pbc="T T T"
Fe       6.20650975       9.71666043       7.33208262      -0.16337162      -2.83667930       0.33514462      55.84500000      -0.35567898       0.40792277       1.07673049
Cl      11.41474830       2.37458017       5.06169125       0.42081019       0.26882443      -2.59859113      35.45000000      -0.39585245       0.08739571       0.09301633
Cl       3.77335266      13.40439441       9.20831580      -0.61018654      -0.46805065      -0.40109260      35.45000000      -0.05605110       0.33235776       0.27077407
Cl      12.24691699       9.06734879      13.17623783       2.42120324      -0.46168294      -0.40758402      35.45000000      -0.07201171      -0.22592813       0.18424504
O        4.32405805       8.80368313       7.33530155       0.79382089      -0.34106015      -0.07651739      15.99900000       1.25943124       1.46108007      -0.69600928
H        3.58269491       9.40898609       7.59213944       0.01615847       0.22489561       0.03749630       1.00800000      -0.36990142      -0.53148782       0.32436222
H        4.06354241       7.89102895       7.51903596      -0.14669166      -0.28479721      -0.07593808       1.00800000      -0.08026532      -0.78629428       0.42653817
O        7.07914666      10.14975711      12.90484161       0.17873897       1.35377357       0.40155974      15.99900000       0.35369813       0.10086324       0.93154228
H        7.85050403      10.13644522      13.55866720      -0.26986900      -0.17828970       0.16847483       1.00800000      -1.47111249      -0.37746209      -0.88509429
H        6.22639369      10.20766382      13.39741914      -0.19134341      -0.05149874       0.13247263       1.00800000       0.99407667       0.39067188      -0.07171349
O       14.63737152      11.49669764       1.53488638       0.90251387       0.90205905       0.55292630      15.99900000       0.56162590       0.30762675       1.34876418
H       13.82453375      11.21118171       1.13519261       0.06707345      -0.11178885      -0.21042934       1.00800000      -0.88980484      -0.43301171      -0.16325767
H       14.47031502      11.56026431       2.51451987       0.06826516      -0.08387483       0.07107025       1.00800000       0.32240832       0.20448704      -1.15635920
O        5.69626117      13.37290446       5.88486194       0.95205431       0.58176203      -0.14198471      15.99900000      -0.52405959      -1.07738018      -2.17645335
H        5.60521619      14.30836181       5.95881178      -0.10233718       0.05228178      -0.05656774       1.00800000      -0.14961164       1.60755515       0.76148540
H        5.27707087      13.25880969       4.96767028       0.24509080       0.11130702       0.31973587       1.00800000       0.57257223      -0.67276448       1.47291172
O        1.09214029      15.08184426      18.95151793       0.73502521      -0.16783891       0.07732919      15.99900000      -0.69597793       0.32982209      -1.19592094
H        0.28213989      15.48536146      18.53911069      -0.28231493      -0.15054089      -0.14236096       1.00800000       0.62236977      -0.41339570       0.14688258
H        0.88700053      15.05546171      19.88270258       0.17396483      -0.07960392      -0.03711340       1.00800000       0.10409028       0.06288680       1.16869211
O        3.73659816       2.87368662      14.17622496       0.37353514       0.29768613      -0.20736686      15.99900000       0.51063526       0.27475321       0.82246917
H        3.93357644       1.93428209      14.23343503       0.08662189      -0.30910227       0.09273135       1.00800000      -0.02019066      -0.44139147       0.04658335
H        3.22043688       2.94395841      13.36511298       0.49216586      -0.07938837      -0.00485247       1.00800000      -0.30502784      -0.16144885      -0.72009826
O        6.74142848       6.33471449       9.51848423      -0.77673470      -0.44581742      -0.69510657      15.99900000      -0.23585224       0.90596902      -0.07153273
H        7.03794663       5.42682150       9.35768292       0.00901861      -0.03789945      -0.08358034       1.00800000      -0.02624712      -0.66559070      -0.25153172
H        5.76473535       6.36605999       9.44191838      -0.29901533       0.25767071       0.35929719       1.00800000       0.14282949      -0.13127647       0.10200190
O        0.98648603       8.53055020      12.62736047       0.73385573       0.08297279       0.01494944      15.99900000      -1.43408453       0.86397171       0.50001669
H        0.96548205       9.49125944      12.89794473      -0.02080516       0.00907602      -0.06594453       1.00800000       0.13857691      -1.09464979      -0.49230713
H        0.13937684       8.18471443      12.99131105       0.13292798       0.13084824       0.13971681       1.00800000       0.55374646       0.24153610      -0.21305177
O        7.98547422       5.38161889       2.65992402       0.75821737       0.13231975       0.13182924      15.99900000       1.00810289      -0.76516128      -0.22396602
H        8.24079159       4.50036110       2.27601747       0.08539331       0.09130478      -0.26857818       1.00800000      -0.17004044       1.32380009       0.41433042
H        8.80512091       5.93785465       2.58143745      -0.01008852       0.20668201       0.00294784       1.00800000      -0.53148818      -0.29301283      -0.00249272
O       11.15240744      -0.86969452      17.27638379       0.59391875      -0.43041649       0.79912223      15.99900000       0.48816282       0.39992023      -0.96208012
H       11.24712184      -0.78070610      18.23865448       0.15835137       0.04084411       0.00217802       1.00800000       0.40407217      -0.18054888       0.65851068
H       11.85294344      -0.30956969      16.85452689      -0.17257866       0.11367471      -0.08953296       1.00800000      -0.64309132      -0.38191181       0.41295815
O       -1.59880984       6.36499664       7.32978160       0.51250339      -1.17152618       0.80749422      15.99900000      -0.44270605      -1.72077918      -0.01766050
H       -1.78145672       5.57550410       7.92577085       0.10538271      -0.18416248      -0.05441346       1.00800000       0.09010939       1.33372927      -0.89641452
H       -1.35400471       7.07714656       7.90079285       0.08601926       0.16569069       0.03131524       1.00800000       0.33395743       0.48802063       0.94875801
O        8.70195770       8.96013075       4.74863342      -0.95153742      -0.65073369      -0.12851301      15.99900000       1.17437172      -0.50204992      -0.55955648
H        9.52781962       9.30130386       4.34826514       0.02150887       0.00701199      -0.15935679       1.00800000      -0.26453620       0.77786100       0.16427033
H        8.84902842       8.02281122       4.62047241      -0.14065279       0.13071353       0.09425852       1.00800000      -0.42820811      -0.74126655       0.13606970
O        8.68231763      -0.34443724      16.56464673       1.78883185       0.13843829       1.36074157      15.99900000       1.19986844       0.75024736      -0.53934979
H        8.88180985       0.43698168      15.94129549       0.14004320      -0.10200502      -0.10590382       1.00800000      -0.59435427      -0.95436263       0.88462090
H        9.59294987      -0.60821510      16.94535767      -0.04278471       0.33976930      -0.05674697       1.00800000      -0.68102270       0.48550901      -0.87957084
O        4.76635242      11.81304496       3.78183818       0.43009009       0.16605584      -0.18831186      15.99900000       0.03693777      -0.29306346       0.17954580
H        4.21476375      11.98133524       2.98924947       0.12075663      -0.02058360      -0.17167096       1.00800000       0.33502176       0.35077316       0.13559376
H        5.72400393      11.87346289       3.51506501       0.15779466       0.11280701       0.08232192       1.00800000      -0.86529738       0.06442048       0.00106663
O       -2.73360368       0.48389786       8.18312779      -0.66672633      -0.48795768       0.43529407      15.99900000       0.25622869       0.02968423      -0.38264591
H       -3.01003730       0.42121519       9.09270955      -0.13014598       0.02637858      -0.08272825       1.00800000       0.49964401      -0.21350977       0.98015940
H       -3.55594646       0.69091422       7.75001656       0.07966190      -0.01933079      -0.08604207       1.00800000      -0.44870082       0.09186868      -0.84147620
O       -3.68733698       6.05550302       9.97595348       0.93448550      -0.01258555      -0.58923788      15.99900000       0.30449373       0.70463276      -1.19391704
H       -3.70877369       5.53318504      10.77262624      -0.32651443      -0.11295867      -0.10067730       1.00800000      -0.42919499      -0.19316201       0.75307566
H       -4.52689680       6.52660591       9.85061850       0.13386019       0.13176512      -0.28020532       1.00800000       0.37284073      -0.23436110       0.57840967
O        7.20121516       1.25085561      -1.85437046      -0.04859432      -0.33751916       0.33444630      15.99900000      -0.71228588      -1.11210632       0.90157926
H        6.53426747       1.80373096      -2.28668106      -0.09027960      -0.21239453       0.04223205       1.00800000      -0.08525557       0.32284206      -0.19023027
H        6.66243987       0.51850314      -1.41793066      -0.08273771       0.02515249      -0.02973413       1.00800000       0.85148585       0.93692756      -0.42877918
O        0.33011845       3.78313103       5.40024049       0.67235349       0.57371962      -0.31596746      15.99900000       0.21111780      -0.99804044       0.40166694
H       -0.24057401       3.00445770       5.49263540       0.17617714      -0.07507996       0.15898428       1.00800000       0.16355959      -0.09087496       0.14703198
H       -0.22394027       4.46390057       5.03396312      -0.13334435      -0.07222311      -0.00615067       1.00800000      -0.39195171       0.93199861      -0.45899758
O       -3.32673495      20.29574133       4.97105415      -0.65958286       0.58351368      -0.13278089      15.99900000       0.01111908       0.21675904      -0.10505054
H       -3.66178449      19.91535653       5.79663899       0.02461028       0.27326926       0.10936316       1.00800000       0.10530309       0.18115586       0.60024047
H       -3.69676133      19.68570210       4.33275309       0.10434198      -0.04821588      -0.04250029       1.00800000      -0.08747713      -0.13013794      -0.57287884
O        7.21869965      12.21586263       3.20345814       1.39382468      -0.08586708      -0.58603055      15.99900000      -0.58765900      -0.58796465      -1.31990314
H        7.75820772      12.12537962       3.97672056      -0.09629301      -0.03488663       0.20846093       1.00800000       0.83136189      -0.34054995       1.96514857
H        7.73148761      12.84670078       2.70892097      -0.32989159      -0.11184014      -0.16546264       1.00800000      -0.03247097       0.91390324      -0.99190629
O        3.50065379       8.85388408      -1.15952005       1.73838660      -0.23050729       1.13427095      15.99900000      -1.26620042      -0.23425138      -1.25204945
H        2.88596323       9.61863840      -1.25101395      -0.26330941      -0.23031730      -0.29998908       1.00800000       0.42762846      -0.47480935      -0.01021102
H        4.12760129       9.12608611      -0.52200543      -0.05124175      -0.05109753       0.04451241       1.00800000       1.13961589       0.93541497       1.37217534
O       -0.42137570       4.55224432      -4.77774900      -0.36333915       0.31114384      -0.79122976      15.99900000      -1.04105449       0.34564406       1.27772725
H        0.50321919       4.79160500      -4.86952658      -0.13838168       0.03858076      -0.01055653       1.00800000       0.41008022      -0.07649799       0.02062078
H       -0.73830507       4.85266288      -3.85835481      -0.17437463      -0.17974393      -0.00755312       1.00800000       0.98385084      -0.42880759      -1.33200455
O        1.60619122      16.87587144       9.32732408      -1.66624818       0.62527452       1.02852124      15.99900000       0.19850191      -0.55517268      -0.40892461
H        2.33617047      16.30659104       9.66260627      -0.04136705       0.07144993      -0.09383884       1.00800000      -0.50778919       0.83519936      -0.52319503
H        1.94357687      17.58246346       8.74438612       0.13715070      -0.26647709      -0.09975274       1.00800000       0.20322163      -0.22343780       0.21824080
O        4.82391139       2.34766180       8.45874759       1.44081254      -0.44487984       0.19374795      15.99900000       0.24179313       0.81699634       0.34241688
H        4.66654570       2.60697098       7.53605430      -0.15546153       0.20838983      -0.14624415       1.00800000       0.00095444      -0.15703805       0.13674513
H        4.46150872       1.48008386       8.60317677      -0.00447281      -0.22724933      -0.06842488       1.00800000      -0.32467219      -0.80872065      -0.37925601
O        3.19292322      12.24707260      16.23010016      -0.43541202      -0.06462422       1.27361510      15.99900000       0.49415076       0.51027900      -0.45555687
H        2.51741453      11.63620736      16.54428714      -0.02533657       0.21459089      -0.20410773       1.00800000      -0.84508210       0.62254030      -0.22132151
H        2.88398378      13.18483447      16.08759783       0.01884994      -0.01911227       0.47237667       1.00800000      -0.21568438      -1.04827714       0.33055824
O        9.77934502       0.37899853      11.16406391      -0.19054926      -0.04146315      -0.68973400      15.99900000      -0.87879723       1.23248386       1.52245855
H        9.84835833      -0.32724573      10.52689607       0.03666169       0.25438489       0.13012025       1.00800000      -0.33589199      -1.32601309      -0.30540949
H        8.98799410       0.28248109      11.77730778       0.09876001       0.11256837      -0.10220653       1.00800000       1.17681074       0.08337106      -1.34553814
O        5.01740464      10.48661469       0.39654350      -0.16530930       0.02830053      -0.01425050      15.99900000       0.32204542      -1.32667518      -0.70312178
H        4.47547343      11.11947847       0.85057396      -0.07603626       0.08718889      -0.07909149       1.00800000      -0.63532925       1.06796122       0.46083194
H        5.68708901      10.14206754       1.01935910       0.12546626      -0.15327633       0.24905153       1.00800000       0.37758866       0.44049993       0.19048296
O        4.03867439       6.28568887       8.32151090       0.31104839      -0.37458229      -1.47102595      15.99900000       0.18524107      -1.49184227      -0.17426719
H        3.52054410       5.63186223       8.87558005      -0.15353027      -0.08026011       0.00514291       1.00800000       0.42456412       1.01065505      -0.12633276
H        4.47758086       5.66945163       7.64094493      -0.00572668       0.30811062       0.06067776       1.00800000      -0.49559048       0.78983891       0.58883107
O        0.72336619      12.34264375       4.06207938       0.08548741      -0.93043205       0.01868221      15.99900000       0.88417757      -0.96325731       0.70583320
H        0.85312194      13.28353060       4.30633762       0.31942939      -0.04890427      -0.03546462       1.00800000       0.04639106       0.05173965      -0.19576991
H        1.51428487      11.87770537       4.44243218      -0.10525481       0.05297949       0.10732112       1.00800000      -0.79739380       0.49682343      -0.35703272
O        9.34144609       9.55925887      14.42604862       1.07341340       0.57609331       0.91084062      15.99900000       0.49526879       0.37333199      -0.24144843
H       10.29290115       9.53009402      14.19806891       0.06112303       0.11028119      -0.29686997       1.00800000      -0.20310776      -0.08165030      -0.35983217
H        9.26730812       8.94962501      15.16040368       0.10225136      -0.22346123      -0.00987876       1.00800000      -0.33453110      -0.31263900       0.50452530
O       10.02393684       9.85629239      10.68291447      -0.19350361       0.54677509      -0.56040137      15.99900000       0.60419405      -0.02962682      -0.07580393
H       10.67803002       9.46416030      11.29220033       0.08192979       0.25457572      -0.17635247       1.00800000       0.03118980       0.26365644      -0.17574498
H        9.21255661       9.47181120      11.01573962       0.01029734       0.39255644      -0.03283972       1.00800000      -0.66134572      -0.15709150       0.01175062
O       12.46908294       8.60941654       2.07178755       1.14409225       0.00021412       0.24228134      15.99900000       0.52935374      -0.11945207       0.12068751
H       12.22664279       9.00537071       1.21411879      -0.15335138      -0.16333866      -0.20751347       1.00800000       0.36796924      -0.08407470       0.30928108
H       13.42145296       8.31860331       1.96451377       0.10309881      -0.05858562      -0.06499019       1.00800000      -1.10564458       0.13235804      -0.35251582
O        2.84606915       2.12652726      11.75724416       0.88703499      -0.54916679      -0.51297439      15.99900000      -0.31283489      -1.67445326       0.41105872
H        3.13121572       1.22917949      12.19052880      -0.12862976       0.42869843       0.28913465       1.00800000      -1.33097267       1.94960618      -0.86907899
H        1.85143137       2.07694215      11.58196465       0.02595224       0.17881036      -0.05369016       1.00800000       1.33514977      -0.37032467       0.60495812
O        9.48180263       5.38902441       7.11638011      -0.25534835      -0.35580695       0.68091879      15.99900000      -0.17004111       0.14816773      -1.22789931
H        9.47541010       4.78503287       7.85608271       0.30020181      -0.11179014       0.15718832       1.00800000      -0.05536284      -0.03191140       0.58747506
H        9.47525434       6.30035554       7.42599762      -0.33201529       0.04288259       0.20539337       1.00800000       0.19357181       0.07177742       0.47044110
O        1.46413746       4.69148830       7.74922537       0.15184473      -0.67760239      -0.37953610      15.99900000       0.41717726       0.39310086      -0.97029328
H        1.91446136       5.31626275       7.13025496       0.25189192       0.12814920       0.15062660       1.00800000      -0.22435004      -0.31658188       0.86370730
H        0.82661683       4.26280807       7.13923264       0.10937370      -0.20657092      -0.17212508       1.00800000       0.05739398       0.16089040       0.19354466
O       13.24359448      15.72704105       3.04765731       0.20792564      -0.64965339       0.36950322      15.99900000       2.39538813      -1.31638670      -2.05331707
H       13.36511280      16.44821097       2.43022253       0.19910826       0.10289247      -0.04827399       1.00800000       0.57639337       0.15900850      -0.86695373
H       12.57173919      16.07466120       3.56105378       0.08078526       0.04456247      -0.13908022       1.00800000      -2.60078001       1.13889563       2.50264597
O        0.00962122       1.98874645      11.41214130       0.24735772      -0.18642680      -0.68021347      15.99900000       1.26332831      -1.14313877      -2.93814921
H        0.07233627       2.48502243      10.55006977      -0.05800306       0.11236877       0.16920740       1.00800000       0.23785159      -0.50918305       0.61934280
H       -0.25805826       2.64559563      11.98727190       0.04665909       0.12346300       0.23444131       1.00800000      -1.10862195       2.36472416       2.48188639
O        7.88450671      -0.96831684       7.98167074      -1.39212332      -0.07162400       0.41994820      15.99900000       0.62090921      -1.38075948      -1.45674396
H        7.75590724      -0.37268414       8.68810260       0.37489447      -0.03042997       0.00085569       1.00800000      -0.79388011       1.37619972       1.51851285
H        7.73554997      -0.46038713       7.17686409      -0.19870454      -0.12495738      -0.08926394       1.00800000      -0.06800596       0.10387813      -0.10108645
O        2.35108699       0.63283631       1.84911758      -1.68760500       0.84650299      -0.16012799      15.99900000      -1.87399697      -0.76757544      -0.86104870
H        2.19151298       0.43770110       2.77244340       0.12518016      -0.08921325      -0.05756447       1.00800000       0.30426291       0.28369373       0.70018125
H        3.24225566       0.86243478       1.65043548      -0.18685877      -0.09219554       0.13446980       1.00800000       1.56514251       0.10889690       0.33512062
O        2.14905148       6.15318881      -1.65582840      -0.38499079       0.07405973      -0.05049890      15.99900000      -0.68496406      -1.36973405      -1.04820275
H        2.07858736       7.10641236      -1.72343876      -0.07161221       0.00648585       0.28756160       1.00800000       0.01183463       0.78781223       0.39512387
H        2.66116316       5.89703777      -0.89531655       0.08755840       0.08142537      -0.21167960       1.00800000       0.52126116       0.42423773       0.71404898
O       12.27997307      16.86832215      13.82558162       0.04129945       0.99143226       0.59852272      15.99900000       0.13569462      -0.28982341       0.00497906
H       12.03981179      15.90855568      13.96237048       0.08145903       0.09952351       0.37344284       1.00800000       0.11291356       0.74943453      -0.13424484
H       13.23692107      16.90328914      14.01151439       0.05049067      -0.11361870      -0.18590435       1.00800000      -0.26882815      -0.09229244       0.13395715
O        3.36423480       6.11648547       0.89761418       0.62178824       0.68837648      -0.82087862      15.99900000       1.43786788       0.40017807       0.75759006
H        4.36399503       6.18846998       0.99290420       0.28799067       0.08212797      -0.13734062       1.00800000      -1.33832920      -0.05545274       0.02457588
H        3.06244620       6.87821904       1.44467497      -0.01828989       0.05289323       0.07984226       1.00800000       0.00690360      -0.29791197      -0.39388025
O       13.82615473       9.64244643       7.90937932      -0.16760884       0.39684010       0.04001885      15.99900000      -0.23503059      -0.79528016       0.88760883
H       13.39771260       9.38063992       8.76990077      -0.34532214      -0.20901045       0.02351110       1.00800000       0.15067309       0.28698719      -0.51206815
H       14.71689405       9.24729730       7.99094779       0.37898039      -0.00705398      -0.23695010       1.00800000       0.03145760       0.51457596      -0.22560148
O        8.84712055       1.86691108       0.29467180       0.79355401       0.85304413      -1.47747897      15.99900000       1.40066564       0.60768670       1.19987369
H        8.22260871       2.19684558      -0.33562695      -0.07845493       0.02974781      -0.19759645       1.00800000      -0.85744631      -0.12604967      -0.93225062
H        9.37442186       2.65588806       0.57834858       0.29688280      -0.05966254       0.11838812       1.00800000      -0.24361056      -0.87657738       0.05288225
O        1.32160087      11.46251291       9.88438725      -0.47472412      -1.38369195      -0.18568668      15.99900000       0.36027682      -0.02912246       0.25733835
H        1.94673083      12.14183638       9.57392094      -0.22107053      -0.05223319      -0.13677563       1.00800000       0.13209037       0.09807476       0.28360128
H        0.45350019      11.87519741       9.71565046      -0.10246927       0.20808547      -0.10357632       1.00800000      -0.23751444      -0.04446529      -0.38141817
O        4.35419674       8.48653464      10.85016642      -1.36924672       0.13063558      -0.28626597      15.99900000      -0.20979704       0.04242697       0.42786905
H        3.57476805       8.02273617      10.47273936       0.04996062       0.04090058      -0.00963795       1.00800000       0.50116611       0.35312313       0.56740236
H        4.19775969       8.64270473      11.83187989       0.09606070      -0.10805877       0.24761155       1.00800000      -0.38364756      -0.38618258      -1.29673910
O       -2.41304046       3.68772260       8.33636310       0.20097743      -0.29522064      -0.62345891      15.99900000      -1.03505445      -1.67988014      -2.65776491
H       -1.54893973       3.84907160       8.70447653       0.16565026       0.44506051       0.02063633       1.00800000       1.10745823       0.08952647       0.81583762
H       -2.26341404       3.08927189       7.52282359      -0.09446820      -0.09466399       0.10792361       1.00800000      -0.39757863       1.30062389       1.72397804
O       16.39860748      -3.36721811      12.70637102       0.30113481       0.16608267       0.35200899      15.99900000       0.63993800      -0.96904361       0.31775618
H       15.96835712      -2.72531650      13.27980202       0.16004015      -0.09457480      -0.26111002       1.00800000      -0.48431137       0.61620080       0.31417716
H       15.99752391      -3.29526879      11.83359500      -0.02323598       0.29543282      -0.13802042       1.00800000       0.00201770       0.22774449      -0.74240148
O       10.13456098      12.83491089      -5.28199823      -0.39922700       0.15149646      -0.72806401      15.99900000      -0.25884822      -2.06731176       0.89716351
H        9.35886153      13.01566785      -5.84301167       0.00076460      -0.03723696       0.10906144       1.00800000      -0.27426487       0.12007341      -0.30876118
H        9.92969570      11.90170857      -4.92772658      -0.01073475       0.10455346       0.01037458       1.00800000       0.43738300       1.83326435      -0.29920202
O        2.87804673       5.00746214      10.46448637      -0.74556214       0.03928455      -0.60580856      15.99900000       0.06332003      -0.82841986       1.21555543
H        2.92467565       5.57877007      11.28707774       0.11720803      -0.03585801       0.31408246       1.00800000      -0.24503794      -0.74711758      -0.77390587
H        2.90639126       4.07207574      10.81118355      -0.04914479      -0.22543364      -0.01783482       1.00800000       0.01510220       1.24428833      -0.46892905
O        2.66723508      18.18793424       1.97299701      -0.06782421      -1.13672859       0.49702668      15.99900000      -0.05855665       1.68479323       1.65978396
H        3.00759698      19.10244778       1.77914475      -0.12728262       0.23467880       0.01390447       1.00800000      -0.31036043      -0.66951180      -0.15898864
H        2.83454150      17.71707991       1.16801479      -0.14050630       0.08119178       0.12890163       1.00800000       0.36047417      -0.71155119      -1.15957928
O        8.65349545       7.16092254      11.51429228       0.09785609      -0.29372477       0.36860454      15.99900000       0.38648528      -0.23988955      -0.07955004
H        8.03499069       7.60174962      12.11466278       0.06297635       0.10756524      -0.06233820       1.00800000      -0.28264272      -0.10423789      -0.14394332
H        8.13381516       6.69617788      10.83258025       0.19605373       0.05333368      -0.03986119       1.00800000      -0.47313637       0.56182873       0.44416416
O       11.53427374      -0.19816922      -0.23674273      -0.68100578       0.78176996      -0.97952311      15.99900000      -1.01583040      -0.03887964       0.19129115
H       11.80201412      -0.96210924      -0.77499919      -0.15923504      -0.35101074       0.16017972       1.00800000       0.12887527      -0.24736235      -0.00798576
H       10.55460556      -0.24081049      -0.25182595      -0.07520497       0.01699805       0.11077407       1.00800000       0.75562716       0.06758554      -0.01735973
O        5.02171226       7.72027804       4.53540339      -1.28200175       0.29534806      -0.27971290      15.99900000      -0.24844477       0.08735624       0.70022929
H        5.15077009       7.23672301       3.71987982      -0.10772999      -0.20936224       0.32720665       1.00800000      -0.02363429      -0.10535947      -0.51522899
H        4.15763561       7.45589635       4.95772443      -0.15837660       0.01325690       0.07900467       1.00800000       0.42696762       0.16630277      -0.34969920
O       15.95280764       7.52338352      -4.66380213       0.51262768      -0.58746007       0.25309737      15.99900000      -0.82540369      -0.01250812       0.55039960